4
Lattice="5.73482951 0.0 0.0 2.86741476 4.96650805 0.0 2.86741476 1.65550268 4.68246869" Properties=species:S:1:pos:R:3:forces:R:3 source=Alexandria alexandria_id=agm002190202 energy_unit=eV forces_unit=eV/A stress_unit=eV/A^3 energy=-17.52450881 stress="-0.0011608826242086182 -0.0 -0.0 -0.0 -0.0011608826242086182 -0.0 -0.0 -0.0 -0.0011608826242086182" pbc="T T T"
Pb       8.60224427       4.96650805       3.51185152      -0.00000000      -0.00000000      -0.00000000
Ac       2.86741476       1.65550268       1.17061717      -0.00000000      -0.00000000      -0.00000000
Te       5.73482951       3.31100536       2.34123435       0.00000000      -0.00000000       0.00000000
Te       0.00000000       0.00000000       0.00000000      -0.00000000       0.00000000      -0.00000000
10
Lattice="8.34963388 0.0 0.0 0.0 8.34963388 0.0 0.0 0.0 2.73411642" Properties=species:S:1:pos:R:3:forces:R:3 source=Alexandria alexandria_id=agm003006173 energy_unit=eV forces_unit=eV/A stress_unit=eV/A^3 energy=-29.92013964 stress="-0.001743291759310136 -0.0 -0.0 -0.0 -0.001743291759310136 -0.0 -0.0 -0.0 -0.008015937714524414" pbc="T T T"
P        2.98253890       7.15735584       0.00000000       0.00784893       0.00784893       0.00000000
P        7.15735584       5.36709498       0.00000000       0.00784893      -0.00784893      -0.00000000
P        5.36709498       1.19227804       0.00000000      -0.00784893      -0.00784893      -0.00000000
P        1.19227804       2.98253890       0.00000000      -0.00784893       0.00784893       0.00000000
Hg       0.00000000       0.00000000       0.00000000       0.00000000       0.00000000       0.00000000
Hg       4.17481694       4.17481694       0.00000000       0.00000000       0.00000000       0.00000000
Ag       1.28156961       5.45638655       1.36705821      -0.00695835      -0.00695835      -0.00000000
Ag       5.45638655       7.06806427       1.36705821      -0.00695835       0.00695835       0.00000000
Ag       7.06806427       2.89324733       1.36705821       0.00695835       0.00695835      -0.00000000
Ag       2.89324733       1.28156961       1.36705821       0.00695835      -0.00695835       0.00000000
5
Lattice="4.86647415 0.0 0.0 0.0 4.86647415 0.0 0.0 0.0 4.75795812" Properties=species:S:1:pos:R:3:forces:R:3 source=Alexandria alexandria_id=agm001774974 energy_unit=eV forces_unit=eV/A stress_unit=eV/A^3 energy=-17.08335229 stress="-0.0008903819226170548 -0.0 -0.0 -0.0 -0.0008903819226170548 -0.0 -0.0 -0.0 -0.0008902813094899455" pbc="T T T"
P        0.00000000       0.00000000       2.37897906       0.00000000       0.00000000       0.00000000
S        0.00000000       2.43323708       0.00000000       0.00000000       0.00000000       0.00000000
S        2.43323708       0.00000000       0.00000000       0.00000000       0.00000000       0.00000000
Bi       2.43323708       2.43323708       2.37897906       0.00000000       0.00000000       0.00000000
Ag       0.00000000       0.00000000       0.00000000       0.00000000       0.00000000       0.00000000
5
Lattice="4.99901673 0.0 0.0 0.0 4.99901673 0.0 0.0 0.0 4.99901673" Properties=species:S:1:pos:R:3:forces:R:3 source=Alexandria alexandria_id=agm002391046 energy_unit=eV forces_unit=eV/A stress_unit=eV/A^3 energy=-21.98752245 stress="-0.0034305252795759685 -0.0 -0.0 -0.0 -0.0034305252795759685 -0.0 -0.0 -0.0 -0.0034305252795759685" pbc="T T T"
Pb       0.00000000       0.00000000       0.00000000       0.00000000       0.00000000       0.00000000
Ir       0.00000000       2.49950837       0.00000000       0.00000000       0.00000000       0.00000000
Ir       0.00000000       0.00000000       2.49950837       0.00000000       0.00000000       0.00000000
Ir       2.49950837       0.00000000       0.00000000       0.00000000       0.00000000       0.00000000
Ag       2.49950837       2.49950837       2.49950837       0.00000000       0.00000000       0.00000000
5
Lattice="4.81743276 0.0 0.0 0.0 4.81743276 0.0 0.0 0.0 4.70888544" Properties=species:S:1:pos:R:3:forces:R:3 source=Alexandria alexandria_id=agm001755854 energy_unit=eV forces_unit=eV/A stress_unit=eV/A^3 energy=-15.18323135 stress="-0.0016133595799876998 -0.0 -0.0 -0.0 -0.0016133595799876998 -0.0 -0.0 -0.0 -0.0016115054148716735" pbc="T T T"
P        0.00000000       2.40871638       0.00000000       0.00000000       0.00000000       0.00000000
P        2.40871638       0.00000000       0.00000000       0.00000000       0.00000000       0.00000000
Ag       0.00000000       0.00000000       0.00000000       0.00000000       0.00000000       0.00000000
Pt       2.40871638       2.40871638       2.35444272       0.00000000       0.00000000       0.00000000
Cl       0.00000000       0.00000000       2.35444272       0.00000000       0.00000000       0.00000000
5
Lattice="4.80846405 0.0 0.0 0.0 4.80846405 0.0 0.0 0.0 5.32044866" Properties=species:S:1:pos:R:3:forces:R:3 source=Alexandria alexandria_id=agm001689803 energy_unit=eV forces_unit=eV/A stress_unit=eV/A^3 energy=-12.39250909 stress="-0.0007541338353799551 -0.0 -0.0 -0.0 -0.0007541338353799551 -0.0 -0.0 -0.0 -0.0007864332706158535" pbc="T T T"
P        0.00000000       0.00000000       2.66022433       0.00000000      -0.00000000       0.00000000
Se       2.40423203       2.40423203       2.66022433       0.00000000       0.00000000       0.00000000
Ag       0.00000000       0.00000000       0.00000000       0.00000000      -0.00000000       0.00000000
Cl       0.00000000       2.40423203       0.00000000       0.00000000      -0.00000000       0.00000000
Cl       2.40423203       0.00000000       0.00000000       0.00000000      -0.00000000       0.00000000
10
Lattice="8.04873038 0.0 0.0 0.0 8.04873038 0.0 0.0 0.0 3.73440684" Properties=species:S:1:pos:R:3:forces:R:3 source=Alexandria alexandria_id=agm002954673 energy_unit=eV forces_unit=eV/A stress_unit=eV/A^3 energy=-37.35983302 stress="0.002167225981781097 -0.0 -0.0 -0.0 0.002167225981781097 -0.0 -0.0 -0.0 -0.005144603218516769" pbc="T T T"
Sb       1.29391076       5.31827595       1.86720342       0.02564562       0.02564562       0.00000000
Sb       5.31827595       6.75481962       1.86720342       0.02564562      -0.02564562       0.00000000
Sb       6.75481962       2.73045443       1.86720342      -0.02564562      -0.02564562      -0.00000000
Sb       2.73045443       1.29391076       1.86720342      -0.02564562       0.02564562      -0.00000000
Bi       0.00000000       0.00000000       0.00000000       0.00000000       0.00000000       0.00000000
Bi       4.02436519       4.02436519       0.00000000       0.00000000       0.00000000       0.00000000
Al       2.97884139       7.00320658       0.00000000      -0.00273079      -0.00273079      -0.00000000
Al       7.00320658       5.06988899       0.00000000      -0.00273079       0.00273079      -0.00000000
Al       5.06988899       1.04552380       0.00000000       0.00273079       0.00273079       0.00000000
Al       1.04552380       2.97884139       0.00000000       0.00273079      -0.00273079       0.00000000
5
Lattice="4.71409654 0.0 0.0 0.0 4.71409654 0.0 0.0 0.0 4.71409654" Properties=species:S:1:pos:R:3:forces:R:3 source=Alexandria alexandria_id=agm002391681 energy_unit=eV forces_unit=eV/A stress_unit=eV/A^3 energy=-25.05493861 stress="-0.001667802391640042 -0.0 -0.0 -0.0 -0.001667802391640042 -0.0 -0.0 -0.0 -0.001667802391640042" pbc="T T T"
Os       0.00000000       0.00000000       0.00000000       0.00000000       0.00000000       0.00000000
Au       2.35704827       2.35704827       2.35704827       0.00000000       0.00000000       0.00000000
Al       0.00000000       2.35704827       0.00000000       0.00000000       0.00000000       0.00000000
Al       0.00000000       0.00000000       2.35704827       0.00000000       0.00000000       0.00000000
Al       2.35704827       0.00000000       0.00000000       0.00000000       0.00000000       0.00000000
4
Lattice="0.0 2.7563481 2.7563481 2.7563481 0.0 2.7563481 2.7563481 2.7563481 0.0" Properties=species:S:1:pos:R:3:forces:R:3 source=Alexandria alexandria_id=agm002637746 energy_unit=eV forces_unit=eV/A stress_unit=eV/A^3 energy=-17.7852662 stress="-0.0013869078921464187 -0.0 -0.0 -0.0 -0.0013869078921464187 -0.0 -0.0 -0.0 -0.0013869078921464187" pbc="T T T"
P        2.75634810       2.75634810       2.75634810      -0.00000000       0.00000000      -0.00000000
B        1.37817405       1.37817405       1.37817405       0.00000000       0.00000000       0.00000000
B        4.13452215       4.13452215       4.13452215      -0.00000000      -0.00000000      -0.00000000
Al       0.00000000       0.00000000       0.00000000      -0.00000000       0.00000000      -0.00000000
5
Lattice="5.18120526 0.0 0.0 0.0 5.18120526 0.0 0.0 0.0 5.18120526" Properties=species:S:1:pos:R:3:forces:R:3 source=Alexandria alexandria_id=agm002398062 energy_unit=eV forces_unit=eV/A stress_unit=eV/A^3 energy=-7.26197181 stress="-0.003051627352768822 -0.0 -0.0 -0.0 -0.003051627352768822 -0.0 -0.0 -0.0 -0.003051627352768822" pbc="T T T"
Al       2.59060263       2.59060263       2.59060263       0.00000000       0.00000000       0.00000000
Ga       0.00000000       0.00000000       0.00000000       0.00000000       0.00000000       0.00000000
Cd       0.00000000       2.59060263       0.00000000       0.00000000       0.00000000       0.00000000
Cd       0.00000000       0.00000000       2.59060263       0.00000000       0.00000000       0.00000000
Cd       2.59060263       0.00000000       0.00000000       0.00000000       0.00000000       0.00000000
5
Lattice="5.61553768 0.0 0.0 0.0 5.61553768 0.0 0.0 0.0 3.57122474" Properties=species:S:1:pos:R:3:forces:R:3 source=Alexandria alexandria_id=agm001702109 energy_unit=eV forces_unit=eV/A stress_unit=eV/A^3 energy=-18.22626727 stress="-9.685045205722679e-05 -0.0 -0.0 -0.0 -9.685045205722679e-05 -0.0 -0.0 -0.0 1.7695633322775295e-05" pbc="T T T"
I        0.00000000       2.80776884       0.00000000       0.00000000       0.00000000       0.00000000
I        2.80776884       0.00000000       0.00000000       0.00000000       0.00000000       0.00000000
Ni       0.00000000       0.00000000       0.00000000       0.00000000       0.00000000       0.00000000
Al       2.80776884       2.80776884       1.78561237       0.00000000       0.00000000       0.00000000
N        0.00000000       0.00000000       1.78561237       0.00000000       0.00000000       0.00000000
5
Lattice="5.5940108 0.0 0.0 0.0 5.5940108 0.0 0.0 0.0 5.85832275" Properties=species:S:1:pos:R:3:forces:R:3 source=Alexandria alexandria_id=agm001690645 energy_unit=eV forces_unit=eV/A stress_unit=eV/A^3 energy=-15.90195683 stress="0.0071932893355074485 -0.0 -0.0 -0.0 0.0071932893355074485 -0.0 -0.0 -0.0 0.024293168739764455" pbc="T T T"
Pb       0.00000000       0.00000000       0.00000000       0.00000000       0.00000000       0.00000000
S        0.00000000       0.00000000       2.92916138       0.00000000       0.00000000       0.00000000
Al       2.79700540       2.79700540       2.92916138       0.00000000       0.00000000       0.00000000
Cl       0.00000000       2.79700540       0.00000000       0.00000000       0.00000000       0.00000000
Cl       2.79700540       0.00000000       0.00000000       0.00000000       0.00000000       0.00000000
8
Lattice="7.46776759 0.0 -0.0 0.0 7.46776759 0.0 3.73388379 3.73388379 2.47867518" Properties=species:S:1:pos:R:3:forces:R:3 source=Alexandria alexandria_id=agm002790378 energy_unit=eV forces_unit=eV/A stress_unit=eV/A^3 energy=-60.77910346 stress="-0.005169768983312331 -0.0 -0.0 -0.0 -0.005169768983312331 -0.0 -0.0 -0.0 -0.005886218708703305" pbc="T T T"
Re       6.10328144       1.86694190       0.61966880      -0.07946161       0.00000000       0.00000000
Re       1.36448615       5.60082569       0.61966880       0.07946161       0.00000000      -0.00000000
Re       5.60082569       5.09836994       1.85900639       0.00000000       0.07946161       0.00000000
Re       9.33470948       9.83716523       1.85900639       0.00000000      -0.07946161       0.00000000
As       0.00000000       0.00000000       0.00000000       0.00000000       0.00000000       0.00000000
As       7.46776759       3.73388379       1.23933759       0.00000000      -0.00000000       0.00000000
Al       3.73388380       3.73388380       0.00000000       0.00000000      -0.00000000       0.00000000
Al       3.73388379       7.46776759       1.23933759       0.00000000       0.00000000       0.00000000
6
Lattice="3.04824742 0.0 0.0 0.0 4.55925336 0.0 0.0 -0.13457532 4.5572668" Properties=species:S:1:pos:R:3:forces:R:3 source=Alexandria alexandria_id=agm003274112 energy_unit=eV forces_unit=eV/A stress_unit=eV/A^3 energy=-40.17737444 stress="-0.00023135433084457105 -0.0 -0.0 -0.0 -0.0007555768098747682 9.240192877491776e-05 -0.0 9.240192877491776e-05 -0.0007501195463705521" pbc="T T T"
Sb       1.52412371       0.00000000       0.00000000       0.00000000       0.00000000       0.00000000
Al       0.00000000       2.21233902       2.27863340       0.00000000       0.00000000       0.00000000
O        0.00000000       3.61279913       0.91891816       0.00000000       0.00171191      -0.00166210
O        0.00000000       0.81187891       3.63834864       0.00000000      -0.00171191       0.00166210
O        1.52412371       1.38034911       1.42171229       0.00000000      -0.00201459      -0.00207495
O        1.52412371       3.04432893       3.13555451       0.00000000       0.00201459       0.00207495
10
Lattice="3.00940695 -0.00258934 0.0 -1.50083575 5.74484971 0.0 0.0 0.0 8.661289" Properties=species:S:1:pos:R:3:forces:R:3 source=Alexandria alexandria_id=agm002366809 energy_unit=eV forces_unit=eV/A stress_unit=eV/A^3 energy=-62.06431969 stress="-0.0005719080456575839 -3.7543563686483676e-05 -0.0 -3.7543563686483676e-05 -0.00035949867356846157 -0.0 -0.0 -0.0 -0.0003833597320208756" pbc="T T T"
Al       1.50611389       2.85187859       2.16532225       0.00256898      -0.00337912      -0.00000000
Al       0.00256832       2.89036916       6.49596675      -0.00256998       0.00335128      -0.00000000
O       -1.50077970       5.74484823       4.33065541      -0.00000172      -0.00000759       0.00006702
O       -1.50077970       5.74484823       8.66127809      -0.00000172      -0.00000759      -0.00006702
V        0.00118481       0.28468787       2.16532225      -0.00357999      -0.00274291      -0.00000000
V        1.50749562       5.45757775       6.49596675       0.00359385       0.00269356      -0.00000000
V        0.00332794       4.21405723       0.25869356      -0.00196570      -0.00872066      -0.00244502
V        1.50535468       1.52818800       8.40253871       0.00196099       0.00876685       0.00175059
V        1.50535468       1.52818800       4.58939479       0.00196099       0.00876685      -0.00175059
V        0.00332794       4.21405723       4.07195094      -0.00196570      -0.00872066       0.00244502
3
Lattice="2.99127369 0.00131325 -0.00818753 0.00016763 3.54788339 0.10793621 -1.46347988 -1.44574559 6.03497185" Properties=species:S:1:pos:R:3:forces:R:3 source=Alexandria alexandria_id=agm002047385 energy_unit=eV forces_unit=eV/A stress_unit=eV/A^3 energy=-18.85467923 stress="-0.00029504486201025956 2.172894021048494e-06 1.2851629297722931e-05 2.172894021048494e-06 -0.00027685489492320525 3.803598754897023e-05 1.2851629297722931e-05 3.803598754897023e-05 1.4333257458552476e-05" pbc="T T T"
As       1.53356170       1.26852390       4.10995185       0.00068879      -0.00294799      -0.00111639
C        1.52985693       1.57310561       2.32267057      -0.00066270       0.00413446      -0.00472814
O        1.52689998       1.76714732       1.16220755      -0.00002610      -0.00118647       0.00584454
4
Lattice="2.65171177 0.0 5.16369284 -1.32585589 2.29644976 5.16369284 -1.32585589 -2.29644976 5.16369284" Properties=species:S:1:pos:R:3:forces:R:3 source=Alexandria alexandria_id=agm002765766 energy_unit=eV forces_unit=eV/A stress_unit=eV/A^3 energy=-13.31353865 stress="-0.00043332435449803316 -0.0 -0.0 -0.0 -0.00043332435449803316 -0.0 -0.0 -0.0 -0.0005261125640312427" pbc="T T T"
Au       0.00000000       0.00000000       0.00000000      -0.00000000       0.00000000      -0.00000000
Se      -0.00000001       0.00000000      13.06437845      -0.00000000       0.00000000       0.00495962
Se      -0.00000000       0.00000000       2.42670007       0.00000000      -0.00000000      -0.00495962
F       -0.00000000       0.00000000       7.74553926      -0.00000000       0.00000000      -0.00000000
5
Lattice="4.31029775 0.0 0.0 0.0 4.31029775 0.0 0.0 0.0 4.31029775" Properties=species:S:1:pos:R:3:forces:R:3 source=Alexandria alexandria_id=agm002402922 energy_unit=eV forces_unit=eV/A stress_unit=eV/A^3 energy=-16.88261977 stress="-0.0013167641897973699 -0.0 -0.0 -0.0 -0.0013167641897973699 -0.0 -0.0 -0.0 -0.0013167641897973699" pbc="T T T"
I        2.15514888       2.15514888       2.15514888       0.00000000       0.00000000       0.00000000
As       0.00000000       0.00000000       0.00000000       0.00000000       0.00000000       0.00000000
B        0.00000000       2.15514888       0.00000000       0.00000000       0.00000000       0.00000000
B        0.00000000       0.00000000       2.15514888       0.00000000       0.00000000       0.00000000
B        2.15514888       0.00000000       0.00000000       0.00000000       0.00000000       0.00000000
8
Lattice="9.10700723 0.0 0.0 0.0 9.10700723 0.0 4.55350361 4.55350361 4.74261046" Properties=species:S:1:pos:R:3:forces:R:3 source=Alexandria alexandria_id=agm002840446 energy_unit=eV forces_unit=eV/A stress_unit=eV/A^3 energy=-17.22492027 stress="-0.000346019654014914 -0.0 -0.0 -0.0 -0.000346019654014914 -0.0 -0.0 -0.0 -0.00032364425573822486" pbc="T T T"
I        4.55350362       4.55350362       0.00000000       0.00000000      -0.00000000       0.00000000
I        4.55350361       9.10700723       2.37130523      -0.00000000       0.00000000       0.00000000
Hg       0.00000000       0.00000000       0.00000000      -0.00000000       0.00000000       0.00000000
Hg       9.10700723       4.55350361       2.37130523      -0.00000000      -0.00000000       0.00000000
Ba       6.95833619       2.27675181       1.18565261       0.00751685       0.00000000       0.00000000
Ba       2.14867104       6.83025542       1.18565261      -0.00751685       0.00000000       0.00000000
Ba       6.83025542       6.70217465       3.55695784       0.00000000      -0.00751685       0.00000000
Ba      11.38375903      11.51183980       3.55695784      -0.00000000       0.00751685       0.00000000
4
Lattice="0.0 4.38623418 4.38623418 4.38623418 0.0 4.38623418 4.38623418 4.38623418 0.0" Properties=species:S:1:pos:R:3:forces:R:3 source=Alexandria alexandria_id=agm002686536 energy_unit=eV forces_unit=eV/A stress_unit=eV/A^3 energy=-10.81509098 stress="-0.0007696437983125014 -0.0 -0.0 -0.0 -0.0007696437983125014 -0.0 -0.0 -0.0 -0.0007696437983125014" pbc="T T T"
I        4.38623418       4.38623418       4.38623418      -0.00000000      -0.00000000      -0.00000000
Ba       2.19311709       2.19311709       2.19311709       0.00000000       0.00000000       0.00000000
Ba       6.57935127       6.57935127       6.57935127      -0.00000000       0.00000000      -0.00000000
In       0.00000000       0.00000000       0.00000000      -0.00000000      -0.00000000      -0.00000000
5
Lattice="6.33406335 0.0 0.0 0.0 6.33406335 0.0 0.0 0.0 5.1569872" Properties=species:S:1:pos:R:3:forces:R:3 source=Alexandria alexandria_id=agm001645097 energy_unit=eV forces_unit=eV/A stress_unit=eV/A^3 energy=-10.87410425 stress="-0.0011329121124571586 -0.0 -0.0 -0.0 -0.0011329121124571586 -0.0 -0.0 -0.0 -0.001120521406125364" pbc="T T T"
Mg       0.00000000       0.00000000       2.57849360       0.00000000       0.00000000       0.00000000
Au       0.00000000       0.00000000       0.00000000       0.00000000       0.00000000       0.00000000
Hg       3.16703168       3.16703168       2.57849360       0.00000000       0.00000000       0.00000000
Ba       0.00000000       3.16703168       0.00000000       0.00000000       0.00000000       0.00000000
Ba       3.16703168       0.00000000       0.00000000       0.00000000       0.00000000       0.00000000
5
Lattice="5.12291592 0.0 0.0 0.0 5.12291592 0.0 2.56145796 2.56145796 6.99226422" Properties=species:S:1:pos:R:3:forces:R:3 source=Alexandria alexandria_id=agm002923263 energy_unit=eV forces_unit=eV/A stress_unit=eV/A^3 energy=-16.08666089 stress="-0.0005778488388737822 -0.0 -0.0 -0.0 -0.0005778488388737822 -0.0 -0.0 -0.0 -0.0003186162145750866" pbc="T T T"
Sr       0.00000000       0.00000000       0.00000000      -0.00000000       0.00000000       0.00000000
Ge       2.56145799       2.56145799       1.22456663       0.00000000       0.00000000      -0.00833113
Ge       5.12291589       5.12291589       5.76769759      -0.00000000      -0.00000000       0.00833113
Ba       5.12291592       2.56145796       3.49613211      -0.00000000       0.00000000       0.00000000
Ba       2.56145796       5.12291592       3.49613211       0.00000000       0.00000000       0.00000000
5
Lattice="6.13152199 0.0 0.0 0.0 4.63342098 0.0 0.0 0.0 6.13152199" Properties=species:S:1:pos:R:3:forces:R:3 source=Alexandria alexandria_id=agm001540453 energy_unit=eV forces_unit=eV/A stress_unit=eV/A^3 energy=-24.86107457 stress="-0.001043621894298459 -0.0 -0.0 -0.0 -0.001341222604363695 -0.0 -0.0 -0.0 -0.001043621894298459" pbc="T T T"
As       0.00000000       2.31671049       0.00000000       0.00000000       0.00000000       0.00000000
Rh       0.00000000       0.00000000       0.00000000       0.00000000       0.00000000       0.00000000
Ba       0.00000000       0.00000000       3.06576100       0.00000000       0.00000000       0.00000000
Ba       3.06576100       0.00000000       0.00000000       0.00000000       0.00000000       0.00000000
Ta       3.06576100       2.31671049       3.06576100       0.00000000       0.00000000       0.00000000
9
Lattice="4.7033298 0.0 0.0 0.0 7.51017281 -0.0 0.0 -3.7550864 6.50400044" Properties=species:S:1:pos:R:3:forces:R:3 source=Alexandria alexandria_id=agm002328356 energy_unit=eV forces_unit=eV/A stress_unit=eV/A^3 energy=-39.02940783 stress="-0.0006215600621501717 -0.0 -0.0 -0.0 -0.0006075983679713921 -0.0 -0.0 -0.0 -0.0006075983679713921" pbc="T T T"
Ge       2.35166490      -0.00000003       4.33600032      -0.00000000      -0.00000000       0.00000000
Ge       2.35166490       3.75508644       2.16800012      -0.00000000      -0.00000000       0.00000000
Os       0.00000000       0.00000000       0.00000000      -0.00000000      -0.00000000       0.00000000
Ba       0.00000000      -2.18160145       3.77864455      -0.00000000       0.00086094      -0.00149120
Ba       0.00000000       4.36320290       0.00000000       0.00000000      -0.00172189       0.00000000
Ba       0.00000000       1.57348496       2.72535589      -0.00000000       0.00086094       0.00149120
Al       2.35166490       2.96585305       5.13700816       0.00000000       0.00214744       0.00371947
Al       2.35166490      -2.17661968       6.50400044       0.00000000      -0.00429488       0.00000000
Al       2.35166490       6.72093945       1.36699228      -0.00000000       0.00214744      -0.00371947
5
Lattice="5.97966483 0.0 0.0 0.0 5.97966483 0.0 0.0 0.0 5.97966483" Properties=species:S:1:pos:R:3:forces:R:3 source=Alexandria alexandria_id=agm002629979 energy_unit=eV forces_unit=eV/A stress_unit=eV/A^3 energy=-20.49700426 stress="-0.0016154670255440545 -0.0 -0.0 -0.0 -0.0016154670255440545 -0.0 -0.0 -0.0 -0.0016154670255440545" pbc="T T T"
Os       0.00000000       0.00000000       0.00000000       0.00000000       0.00000000       0.00000000
Ba       0.00000000       2.98983241       0.00000000       0.00000000       0.00000000       0.00000000
Ba       0.00000000       0.00000000       2.98983241       0.00000000       0.00000000       0.00000000
Ba       2.98983241       0.00000000       0.00000000       0.00000000       0.00000000       0.00000000
Zr       2.98983241       2.98983241       2.98983241       0.00000000       0.00000000       0.00000000
4
Lattice="0.0 3.61405799 3.61405799 3.61405799 0.0 3.61405799 3.61405799 3.61405799 0.0" Properties=species:S:1:pos:R:3:forces:R:3 source=Alexandria alexandria_id=agm002727117 energy_unit=eV forces_unit=eV/A stress_unit=eV/A^3 energy=-13.94855309 stress="-0.0038487523285173136 -0.0 -0.0 -0.0 -0.0038487523285173136 -0.0 -0.0 -0.0 -0.0038487523285173136" pbc="T T T"
Rh       0.00000000       0.00000000       0.00000000       0.00000000      -0.00000000       0.00000000
Ba       3.61405799       3.61405799       3.61405799       0.00000000      -0.00000000       0.00000000
Ag       1.80702900       1.80702900       1.80702900       0.00000000       0.00000000       0.00000000
Ag       5.42108699       5.42108699       5.42108699      -0.00000000      -0.00000000      -0.00000000
5
Lattice="5.75638855 0.0 0.0 0.0 6.66829498 0.0 0.0 0.0 5.75638855" Properties=species:S:1:pos:R:3:forces:R:3 source=Alexandria alexandria_id=agm001595283 energy_unit=eV forces_unit=eV/A stress_unit=eV/A^3 energy=-12.48073633 stress="-0.0008797913923473475 -0.0 -0.0 -0.0 -0.0014447519517818196 -0.0 -0.0 -0.0 -0.0008797913923473475" pbc="T T T"
Tl       0.00000000       0.00000000       2.87819427       0.00000000       0.00000000       0.00000000
Tl       2.87819427       0.00000000       0.00000000       0.00000000       0.00000000       0.00000000
Al       2.87819427       3.33414749       2.87819427       0.00000000       0.00000000       0.00000000
Ba       0.00000000       3.33414749       0.00000000       0.00000000       0.00000000       0.00000000
Sn       0.00000000       0.00000000       0.00000000       0.00000000       0.00000000       0.00000000
5
Lattice="5.0613894 0.0 0.0 0.0 5.0613894 0.0 0.0 0.0 5.23520195" Properties=species:S:1:pos:R:3:forces:R:3 source=Alexandria alexandria_id=agm001642541 energy_unit=eV forces_unit=eV/A stress_unit=eV/A^3 energy=-12.09752056 stress="0.0004329908394578916 -0.0 -0.0 -0.0 0.0004329908394578916 -0.0 -0.0 -0.0 0.00016244589804964406" pbc="T T T"
Au       0.00000000       0.00000000       2.61760098       0.00000000       0.00000000       0.00000000
Ba       2.53069470       2.53069470       2.61760098       0.00000000       0.00000000       0.00000000
Cu       0.00000000       0.00000000       0.00000000       0.00000000       0.00000000       0.00000000
Cd       0.00000000       2.53069470       0.00000000       0.00000000       0.00000000       0.00000000
Cd       2.53069470       0.00000000       0.00000000       0.00000000       0.00000000       0.00000000
10
Lattice="5.31795023 0.00022069 0.00084993 2.65916619 4.6051559 0.00066888 2.66009628 1.53548819 6.07972371" Properties=species:S:1:pos:R:3:forces:R:3 source=Alexandria alexandria_id=agm002199611 energy_unit=eV forces_unit=eV/A stress_unit=eV/A^3 energy=-79.97399915 stress="-0.00040527398263730805 6.018166084077215e-05 7.058767961770024e-05 6.018166084077215e-05 -0.0004324291910176899 2.733350957158094e-05 7.058767961770024e-05 2.733350957158094e-05 -0.0006111563402486019" pbc="T T T"
O        5.74936775       4.82274735       1.67036685       0.00477209       0.00382862       0.00386342
O        6.62081333       1.82164176       1.67015630       0.00101519      -0.00547811       0.00302161
O        7.05157642       3.57346951       4.41167163       0.00376530      -0.00213429      -0.00526544
O        4.88784495       1.31811743       4.41087567      -0.00477209      -0.00382862      -0.00386342
O        4.01639937       4.31922302       4.41108622      -0.00101519       0.00547811      -0.00302161
O        3.58563628       2.56739527       1.66957089      -0.00376530       0.00213429       0.00526544
B        2.65956452       1.53553520       1.69097663       0.00094022      -0.00035662      -0.00128259
B        7.97764818       4.60532958       4.39026589      -0.00094022       0.00035662       0.00128259
Ba       0.00000000       0.00000000       0.00000000      -0.00000000       0.00000000       0.00000000
Ce       5.31860635       3.07043239       3.04062126      -0.00000000      -0.00000000       0.00000000
4
Lattice="5.60856269 0.0 0.0 -2.80428134 4.85715776 0.0 0.0 0.0 4.60275412" Properties=species:S:1:pos:R:3:forces:R:3 source=Alexandria alexandria_id=agm002150132 energy_unit=eV forces_unit=eV/A stress_unit=eV/A^3 energy=-18.55735121 stress="-0.0016137878723439178 -0.0 -0.0 -0.0 -0.0016137878723439178 -0.0 -0.0 -0.0 -0.00190676886701454" pbc="T T T"
Ba      -0.00000002       3.23810519       1.15068853      -0.00000000       0.00000000      -0.00000000
Ba       2.80428137       1.61905257       3.45206559      -0.00000000      -0.00000000       0.00000000
Fe       0.00000000       0.00000000       2.30137706       0.00000000       0.00000000      -0.00000000
Fe       0.00000000       0.00000000       0.00000000      -0.00000000       0.00000000      -0.00000000
7
Lattice="4.56360434 0.0 0.0 0.0 4.56360434 0.0 0.0 0.0 7.40404409" Properties=species:S:1:pos:R:3:forces:R:3 source=Alexandria alexandria_id=agm002371283 energy_unit=eV forces_unit=eV/A stress_unit=eV/A^3 energy=-21.89379448 stress="0.00018622632868716996 -0.0 -0.0 -0.0 0.00018622632868716996 -0.0 -0.0 -0.0 -0.00012175158934886888" pbc="T T T"
Cu       0.00000000       0.00000000       3.70202205      -0.00000000      -0.00000000       0.00000000
Ba       0.00000000       0.00000000       0.00000000      -0.00000000      -0.00000000       0.00000000
Ga       0.00000000       2.28180217       2.37273514      -0.00000000       0.00000000      -0.00190114
Ga       0.00000000       2.28180217       5.03130895       0.00000000      -0.00000000       0.00190114
Ga       2.28180217       0.00000000       2.37273514      -0.00000000      -0.00000000      -0.00190114