8
Lattice="5.020916636100026 0.0 0.0 -2.2417284865666836 4.492700817010125 0.0 -2.2416940913873753 -1.7192287184913362 4.15075643559467" Properties=species:S:1:pos:R:3:forces:R:3 source=Internal internal_id=mpf-alkali-TP-000112 energy_unit=eV forces_unit=eV/A stress_unit=eV/A^3 energy=-49.15055874 stress="-0.11503741464406719 -0.04184957201317814 -0.0469483355913915 -0.04184957201317814 -0.15250513136185692 -0.057754630156690405 -0.0469483355913915 -0.057754630156690405 -0.19763121306931505" pbc="T T T"
Ca       0.19456330      -0.05742971       3.31048145      -0.12561468      -0.52684979      -2.10090708
Ca       2.72045753       1.41891871       2.03401593       0.03940089      -1.00590901       0.63543044
Ge      -2.18891604      -1.68848184       4.09205644      -3.46606345      -3.78767851      -2.05656061
Ge       0.29075958       2.85806322       1.07364711      -1.21125426       1.59082892      -2.13126746
N        0.71784550       1.07562070       1.05010817       1.20640414       3.44305114       4.12364164
N       -1.55587846       2.89932183       0.61261014       1.40321996       0.71800961      -0.18294158
N       -1.36813266       2.32894215       3.78002332       2.61019072      -0.49065728       2.30755046
N        3.27379237      -0.89651946       2.53004793      -0.45628331       0.05920493      -0.59494581
6
Lattice="4.43971 0.0 0.0 3e-16 4.439710000000113 0.0 4e-16 -2.4469476613e-06 6.424027999999612" Properties=species:S:1:pos:R:3:forces:R:3 source=Internal internal_id=mpf-alkali-TP-000440 energy_unit=eV forces_unit=eV/A stress_unit=eV/A^3 energy=-14.99636458 stress="-0.06190449695269951 -0.0006915862992974714 0.007421824264332693 -0.0006915862992974714 -0.11494405807022998 0.0157648507112706 0.007421824264332693 0.0157648507112706 -0.09879573700243073" pbc="T T T"
K        2.84556997       0.74077866       0.69631967       1.07660009      -1.26276203      -3.87177448
K        0.26359446       2.41794392       5.41357336       1.73286177      -1.97839106       0.94306214
Li       3.88876863       2.36319894       2.56183170       1.44556219       0.55160232       0.84358624
Li       1.73475453       3.86467331       2.64411065      -0.87252727      -2.65775011       1.03142390
S        3.70643418       4.27660678       4.18439984      -0.58832204       0.98214297      -1.04595945
S        2.09376724       1.33713300       2.88893678      -2.79417474       4.36515791       2.09966164
5
Lattice="3.555674000186322 0.0 0.0 -2.00025269458e-05 3.556568999957951 0.0 -7.00093835903e-05 1.9997209771e-06 3.556626999482752" Properties=species:S:1:pos:R:3:forces:R:3 source=Internal internal_id=mpf-alkali-TP-000313 energy_unit=eV forces_unit=eV/A stress_unit=eV/A^3 energy=-10.54911226 stress="-0.7941668366029874 -0.09184999257854606 -0.051230264762580156 -0.09184999257854606 -0.7769344997110572 -0.05692990019068939 -0.051230264762580156 -0.05692990019068939 -0.7013849793157587" pbc="T T T"
K        3.20373839       3.18016446       2.45039152       1.03989492       1.28739375      -2.03073825
In       1.54963137       1.57365864       2.38555065       0.19984263      -1.05571699      -0.17459235
O        0.41248014       0.45888308       0.55950366       0.24844739      -0.12875387       1.91172074
O        1.87091784       0.12558283       0.66577568      -0.02686509      -0.78165555       0.18456911
O        0.21364053       1.80377837       0.67690437      -1.46131986       0.67873266       0.10904075
4
Lattice="4.72010111435825 0.0 0.0 2.3600503245150413 4.087727660511821 0.0 2.3600490169555517 1.3625748414959826 7.299008872038884" Properties=species:S:1:pos:R:3:forces:R:3 source=Internal internal_id=mpf-alkali-TP-000417 energy_unit=eV forces_unit=eV/A stress_unit=eV/A^3 energy=-7.23308725 stress="-0.10119679031331925 0.021966943477446606 -0.018801637228334223 0.021966943477446606 -0.08109143826797752 -0.0169202875625933 -0.018801637228334223 -0.0169202875625933 -0.04845828141671009" pbc="T T T"
Ca       3.34512797       2.16899837       2.40563654       0.40026169       1.15563775      -0.75199668
Ca       3.35298165       2.71321624       5.10038682       0.11087874       0.66555378       2.19170827
As       5.52698061       3.88030113       1.65599183       3.09087610      -3.19139011       0.77876739
I        1.13495749       0.78838898       1.11156606      -3.60201653       1.37019858      -2.21847898
8
Lattice="4.020916376238879 0.0 0.0 2.0104574745002717 3.4822166420344947 0.0 -2.010457914348762 1.160735062173268 3.8599689870056" Properties=species:S:1:pos:R:3:forces:R:3 source=Internal internal_id=mpf-alkali-TP-000414 energy_unit=eV forces_unit=eV/A stress_unit=eV/A^3 energy=-28.13852528 stress="-0.5979354546764337 -0.04132833463575154 -0.043912429289393866 -0.04132833463575154 -0.6786086288271472 -0.02743165352647243 -0.043912429289393866 -0.02743165352647243 -0.7031765457652595" pbc="T T T"
Li       3.92012185       2.24360769       1.92443000       0.31839488       0.72616168      -0.20767891
As       4.02954482       4.62092093       3.81212467      -1.84577452       5.05742922      -3.17133141
F        1.37221600       2.34272469       2.74882674       1.45795035      -3.13011441       1.78027175
F       -0.52344069       0.95510763       2.91100719      -1.04226560       0.65976202       0.33864564
F        3.60255184       3.22417665       3.12857435      -3.29900390      -0.20955502      -1.46233649
F        4.60129683       3.63119309       0.91207207      -0.87319972       0.27083142      -0.00718764
F        0.48014753       1.26192542       0.89071100       2.34335322       1.04200577      -0.19913531
F        2.53313874       2.62934517       1.17942896       2.94054529      -4.41652068       2.92875236
4
Lattice="4.916690577017533 0.0 0.0 -2.4581595530803932 4.258329300555983 0.0 2.4582822695162876 1.4196752150216039 4.992584860368345" Properties=species:S:1:pos:R:3:forces:R:3 source=Internal internal_id=mpf-alkali-TP-000072 energy_unit=eV forces_unit=eV/A stress_unit=eV/A^3 energy=-13.26617866 stress="-0.044502216693436854 -0.0006575261717862161 -0.015982559779966054 -0.0006575261717862161 -0.06756064734358157 -0.003742075113420604 -0.015982559779966054 -0.003742075113420604 -0.02005875657076621" pbc="T T T"
Na       2.15306862       1.79747397       2.02644027       0.24711979       0.42417990       0.39859662
Sn       0.50156655       0.36166175       0.13130998      -0.92241237      -0.53271590      -0.17709401
S        5.30671775       2.36193995       4.47525821      -0.30058231       0.35094535      -0.79877045
S       -0.26527615       2.72390713       0.36807332       0.97587489      -0.24240935       0.57726783
10
Lattice="5.905837547802768 0.0 0.0 -2.9527621918721594 5.114770805045063 0.0 -2.9528140788007327 -1.7048595179468256 5.114592390129178" Properties=species:S:1:pos:R:3:forces:R:3 source=Internal internal_id=mpf-alkali-TP-000316 energy_unit=eV forces_unit=eV/A stress_unit=eV/A^3 energy=-52.13530107 stress="-0.05938600559062658 -0.010560042482427414 0.01698478924028499 -0.010560042482427414 -0.10164506944227157 0.0011359247328744943 0.01698478924028499 0.0011359247328744943 -0.026330341244734757" pbc="T T T"
Ca      -0.49839631       2.86685074       3.50150110       3.56132071       0.80778784      -1.62418739
Ca      -0.41235400      -0.02123462       2.05695097       1.74640424      -1.38978057       0.42933286
Bi      -3.02926558       2.01336519       4.66265166       2.18987112      -1.70485929      -0.51318895
Bi       3.02538412       1.34333980       0.80070990      -3.64927543       3.68913694       0.43852717
O        1.49216177      -0.52471569       3.27505764      -2.00866715       2.34425322       0.80781487
O       -2.83869635       2.82823982       2.58709892      -0.00138538      -0.23983344      -1.11433289
O        2.50402636       0.47131430       3.13846221       0.19204921      -0.57118962      -0.64697783
O       -1.60520756       4.38921684       0.69204015      -2.22833439       1.58697833      -0.18524429
O        0.69150648       2.47763624       1.11599383      -0.35416045      -1.54411374       1.40572428
O       -0.86007106       0.99148857       3.98422144       0.55217751      -2.97837966       1.00253217
4
Lattice="2.488578063196732 0.0 0.0 -0.0511628565802137 2.488621037888363 0.0 -1.2270077588008566 -1.2357129323529765 2.675789306429994" Properties=species:S:1:pos:R:3:forces:R:3 source=Internal internal_id=mpf-alkali-TP-000022 energy_unit=eV forces_unit=eV/A stress_unit=eV/A^3 energy=-9.16854846 stress="-0.9166214852309498 0.09470749976006641 -0.19596565777699806 0.09470749976006641 -0.8538553811732166 0.22821978353886113 -0.19596565777699806 0.22821978353886113 -2.3216209495010003" pbc="T T T"
Li      -0.14713140       0.11353858       0.32846919       0.32306451      -0.77404902      -4.22007401
H        1.50429064       1.25999347       1.64265636       1.53241332      -0.20016744       1.75955062
F        1.24714244       1.24775065       0.78524516      -3.66180918       3.14884248      -1.43036978
F       -0.10050952       0.18483043       1.75330292       1.80633135      -2.17462603       3.89089316
10
Lattice="5.317155568468728 0.0 0.0 2.658573089686559 4.604796680267704 0.0 2.658574409069622 1.5349295327463306 4.341501102142005" Properties=species:S:1:pos:R:3:forces:R:3 source=Internal internal_id=mpf-alkali-TP-000396 energy_unit=eV forces_unit=eV/A stress_unit=eV/A^3 energy=-36.29218651 stress="-0.5315787820475979 0.0012292832665455908 0.021240129713669086 0.0012292832665455908 -0.547753091186537 -0.038941012513868285 0.021240129713669086 -0.038941012513868285 -0.6299975319113083" pbc="T T T"
Cs       8.44223559       4.88659740       3.36550126      -2.87480836      -0.43084354       0.01112381
Cs       2.21464661       1.40946317       1.01019350       1.27863342      -1.36057868      -1.43802905
Na       5.21414514       2.87163735       2.17380263       1.21029691       0.06187768      -0.93007227
Y        5.41014191       6.12047050       4.32297157      -0.85880351      -3.99693998       3.67322329
F        5.02137072       1.78806975       0.69537823      -1.42135743      -0.11899837       0.16028609
F        7.06614240       2.49728228       2.90991282      -1.38033600       1.42311344       1.07042043
F        3.44624638       3.42543967       1.67823764       0.13563981       1.14095188      -3.63960525
F        3.92438754       1.72434418       2.83357620       1.20258319      -1.23620679      -0.80902505
F        5.63960627       4.01762309       3.46777401       0.60349642       4.86957882       2.02070874
F        6.33668342       4.20279713       1.28346061       2.10465556      -0.35195445      -0.11903074
4
Lattice="4.72010111435825 0.0 0.0 2.3600503245150413 4.087727660511821 0.0 2.3600490169555517 1.3625748414959826 7.299008872038884" Properties=species:S:1:pos:R:3:forces:R:3 source=Internal internal_id=mpf-alkali-TP-000418 energy_unit=eV forces_unit=eV/A stress_unit=eV/A^3 energy=-9.11078791 stress="-0.05576294291785986 0.03997643404509227 -0.008983421261516888 0.03997643404509227 -0.10229103047213807 0.00671055771905569 -0.008983421261516888 0.00671055771905569 -0.01846063516719617" pbc="T T T"
Ca       4.98855602       4.42218785       2.93323079       0.47739551      -0.71572872       0.11876205
Ca       7.42763959       2.93692531       5.16772018       0.05812532       0.05034862       0.71359986
As       3.48913134       2.47095485       1.49509248      -0.72851112       1.06196199       0.51514384
I        5.25232058       0.83820477       1.01867158       0.19299029      -0.39658189      -1.34750575
12
Lattice="5.716032856709713 0.0 0.0 2.6676738522927965 5.055343185967329 0.0 0.6657959785139619 0.401462333676414 6.369626751399231" Properties=species:S:1:pos:R:3:forces:R:3 source=Internal internal_id=mpf-alkali-TP-000034 energy_unit=eV forces_unit=eV/A stress_unit=eV/A^3 energy=-78.58651342 stress="0.014368255872130625 -0.0012505116189996525 -0.007220089433226113 -0.0012505116189996525 0.009196518572741865 0.007257272144062483 -0.007220089433226113 0.007257272144062483 -0.014663467476057183" pbc="T T T"
Ba       1.81213217       1.22595593       4.73004660       0.17909394      -0.60246692       0.08611439
Ba       7.30296432       4.28586821       1.47340933      -0.26626488       0.04352816       0.54266017
Na       4.39013063       2.92891562       3.26354196       0.13063398      -0.05837308       0.12872891
Na       4.69715785       2.61878764       6.24708787       0.03190268       0.12435000       0.28627180
B        1.65075900       1.01597565       1.77081356       0.70118319      -0.66963675       1.50981104
B        7.40400522       4.34914422       4.87622317      -0.89359196       1.04937042       0.91976867
O        4.25942828       0.52655110       5.47096159       1.19553698      -0.29028845      -0.34168198
O        6.42435589       1.62098461       0.99184006      -0.43656852       0.46986185      -0.60945444
O        3.95641946       4.89635649       2.49903388       0.29835476       0.76145315      -1.26667416
O        2.95478973       3.87873629       5.14631446       0.62897608      -0.05524573       0.34173666
O        2.93690390       1.57858597       2.10233353      -0.93766727       0.01178438      -0.84270965
O        6.47413763       3.61678728       4.20007455      -0.63158896      -0.78433705      -0.75457142
9
Lattice="8.102695635889146 0.0 0.0 4.051339852943859 7.017138275655597 0.0 -4.05134395382837 2.3390428138433044 6.615826429699339" Properties=species:S:1:pos:R:3:forces:R:3 source=Internal internal_id=mpf-alkali-TP-000044 energy_unit=eV forces_unit=eV/A stress_unit=eV/A^3 energy=-20.40127505 stress="-0.016370101635176725 -0.00751923880526019 0.011231957142786441 -0.00751923880526019 -0.030384711446914153 0.00594042022985435 0.011231957142786441 0.00594042022985435 -0.020464529200050603" pbc="T T T"
K       -1.07892269       5.33010299       5.98500738      -0.01916814       0.26168241      -0.16407639
K        4.39492710       8.55225806       6.42126820      -0.70586616      -0.13129454       0.13193801
Te       3.34652737       2.29651125       3.29394720       0.13179394       0.82586413      -3.22393188
Br       2.73979098       2.87458667       5.53194235      -0.01316617       0.74330290       2.78787548
Br       5.41283485       7.33651690       3.52039371      -0.35976320       0.57581290      -0.03305425
Br       4.42163093       4.77656897       3.49205813      -0.05809901      -0.34944453       0.00822104
Br       8.69531167       3.77042702       1.32868950       0.92792740      -0.29528325       0.31490316
Br       5.88969047       2.31672375       1.66723457      -0.55599370       0.52984380      -1.28748454
Br       8.71923704       7.23596137       3.39995921       0.65233505      -2.16048383       1.46560937
14
Lattice="4.836697609839383 0.0 0.0 -0.8444248918769244 4.762414673370605 0.0 -0.844424696925518 -1.0073197298641068 4.654665107563674" Properties=species:S:1:pos:R:3:forces:R:3 source=Internal internal_id=mpf-alkali-TP-000050 energy_unit=eV forces_unit=eV/A stress_unit=eV/A^3 energy=-60.58974134 stress="-0.34636844480535817 0.04607486665430189 0.07107157435810213 0.04607486665430189 -0.31126499173417477 -0.03812014915028774 0.07107157435810213 -0.03812014915028774 -0.39657721338658547" pbc="T T T"
K        1.72847345       1.78596164       2.50963251      -1.81623824       1.13620116      -0.70102713
Li       0.70723663      -0.26857435       2.94741307       0.68242129       0.45241322      -1.97596149
Li       2.39096202       1.29286935       0.40970363       0.63343287      -0.43547264       0.13221425
Li       3.42940454       0.96099338       3.06643286       1.77175741       0.87204078       1.94163375
Li       0.65524425       2.47765566       4.49625289      -0.43896281      -0.08877657      -0.84962730
Li       2.55788925       3.91149123       1.74034670      -1.39060063       0.57877429       1.66784351
Li      -0.39953695       2.39881251       1.53479669       0.68880392       1.24640332      -0.91454377
Bi       3.92143684      -0.98602103       4.57193774       1.18856534       1.98292797       4.32486228
O        3.14978286       2.99657554       0.44940326      -0.27749586      -1.89553299      -0.34968201
O        2.26768937      -0.35437171       3.60508467       1.89870080      -0.95840678      -0.76153969
O       -0.40403723       0.67138566       1.72697384      -2.23361785       0.68637694       2.39964531
O        0.11105990       0.84841171       4.36543819      -1.90516585      -0.95550944      -0.58899205
O        0.88268235       4.33708150       1.10932772      -0.52109411       0.43512533       1.34326546
O       -0.80794001       2.92740501       3.24162049       1.71949370      -3.05656459      -5.66809112
5
Lattice="5.202594024547851 0.0 0.0 -0.0001939939113525 5.2029219988621165 0.0 -0.0009930322161647 -0.0002560286211281 5.202956924247823" Properties=species:S:1:pos:R:3:forces:R:3 source=Internal internal_id=mpf-alkali-TP-000237 energy_unit=eV forces_unit=eV/A stress_unit=eV/A^3 energy=-18.92772528 stress="-0.013634983232430403 0.010804148472318042 0.006357218859500163 0.010804148472318042 -0.005437488855410966 0.004079644974931843 0.006357218859500163 0.004079644974931843 0.005878828487271857" pbc="T T T"
Ca       0.12589322       2.50579585       2.94060719       0.81169892       0.21075920      -0.23940284
Ca       2.84260108       4.94678976       2.70017855      -0.85613641       1.32481289       0.41672219
Ca       3.02567688       3.08739824       0.00141520      -0.58101386      -1.04111881       0.64979802
Sn       5.08678754       0.40476943       0.25818113      -0.34027292       0.04426075       0.31115155
O        1.47252311       4.46420962       4.78871310       0.96572427      -0.53871404      -1.13826891
13
Lattice="4.55052400000011 0.0 0.0 -2.2e-13 4.55052500000011 0.0 2.0000006597e-06 -2.0000004399e-06 4.55052699999934" Properties=species:S:1:pos:R:3:forces:R:3 source=Internal internal_id=mpf-alkali-TP-000107 energy_unit=eV forces_unit=eV/A stress_unit=eV/A^3 energy=-31.73162662 stress="-0.45394251115513473 0.060073725992794126 -0.013842615053842135 0.060073725992794126 -0.5569891185619777 -0.0794017759018844 -0.013842615053842135 -0.0794017759018844 -0.501366709925468" pbc="T T T"
Li       1.45064935       1.30391052       3.31773918       1.52832337      -3.12424532      -0.12922518
Li       3.35417320       4.32613845       0.35813557      -1.27660329      -0.54275843      -0.56763003
Li       1.90305229       0.94369203       0.90641037      -2.10960804      -1.66656515       0.65582192
Li       4.43646141       0.03208491       1.92371709      -0.45761530       0.88558347      -1.26497012
Li       0.96424424       2.43342324       4.21150363      -1.26449173       2.65124634       1.69024870
Li       4.08230850       1.09237017       3.56015940      -0.71662342      -1.44676243      -1.57978703
Li       2.61307564       2.32742423       2.13432913       1.47632976      -2.37028473      -0.41811017
Li       1.17366719       3.58545361       1.34388894      -0.31009877      -0.35573320      -5.45757173
Li       4.34383599       3.46921881       3.05834549      -0.95613248      -0.05805354       3.30353982
S        3.06032297       2.24022344       0.02329415      -2.21071886       1.54559281      -0.80698736
S        2.20175857       4.05179993       2.69713376       4.56456815       6.01704291       2.10862271
S        0.21408473       2.00239404       1.77852797       0.80259351      -0.55851600       1.84715195
N        0.51208610       0.05151451       4.49997065       0.93007708      -0.97654674       0.61889653
10
Lattice="4.930327826911614 0.0 0.0 2.4651637779807385 4.269790981699775 0.0 2.465162855980993 1.4232621012490132 4.974764302996462" Properties=species:S:1:pos:R:3:forces:R:3 source=Internal internal_id=mpf-alkali-TP-000214 energy_unit=eV forces_unit=eV/A stress_unit=eV/A^3 energy=-57.44948855 stress="-0.0622666988238704 -0.005626074368442064 9.597823860593935e-05 -0.005626074368442064 -0.046074036908078694 -0.011651786405844926 9.597823860593935e-05 -0.011651786405844926 -0.14781434425235124" pbc="T T T"
Li       2.46751991       1.84947890       3.17673524       0.05394808      -0.03123242       3.01119754
Li       5.39402238       2.19873845       1.19644076       0.05034400       0.10345737       1.06994307
N        6.99312672       4.76380455       3.99411389      -1.70214441       2.04797588       0.19401484
N        2.79398443       0.85783618       1.31870057       0.29324603       1.39565567       0.11264167
O        4.78859013       1.07556796       2.94305564       1.93519477       1.02423532      -2.43248156
O        5.97639191       5.19979129       4.60288575      -0.20810326      -0.81051074       0.98057063
O        7.73624539       3.88242278       4.42677412       0.67402331      -1.94816748      -0.03222846
O        3.23394247       0.68741493       0.21198466       1.61734220      -1.16908448      -1.79155720
O        2.42773988       2.09923513       1.53731161      -1.20642125       0.08003142      -0.24009473
O        5.27922435       4.29429460       2.25982151      -1.50742948      -0.69236053      -0.87200580
10
Lattice="6.292448010879947 0.0 0.0 3.146223098487466 5.449420943138264 0.0 3.1462223962518685 1.8164719752596727 5.137807809502452" Properties=species:S:1:pos:R:3:forces:R:3 source=Internal internal_id=mpf-alkali-TP-000225 energy_unit=eV forces_unit=eV/A stress_unit=eV/A^3 energy=-50.0470852 stress="-0.08299293058814307 0.011392151597422686 -0.005443534874229518 0.011392151597422686 -0.1402875628454558 0.019523381182769535 -0.005443534874229518 0.019523381182769535 -0.10024508339773673" pbc="T T T"
Cs       9.44072455       5.60122780       3.98128213      -0.55799337       0.01213655      -0.44425967
Cs       3.33956521       1.65926839       1.11139003      -1.41709764      -0.30116823       0.60398530
K        5.92747221       3.42180318       2.60813107       0.48687782       1.27543914       0.15364307
Y        6.32628247       0.10658339       0.04683625      -3.13804370      -1.55721422      -0.14811737
F        6.55592666       5.67159446       3.66223454      -0.10998676       0.34581488      -0.14061472
F        3.96407775       3.99349522       0.91741210       2.58921558      -0.90036861       2.34325327
F        7.98353260       2.36338536       3.86673471      -1.17122476       1.09544731      -1.25623458
F        7.50592981       4.82835555       1.04234817       1.03849338      -0.94764868       0.26829895
F        6.66544480       1.57628811       1.51241135      -0.23510241      -0.34240967       0.74670563
F        4.30565306       3.33807950       4.42813783       2.51486186       1.31997152      -2.12665988
12
Lattice="3.4581856463968212 0.0 0.0 3e-16 4.634868 0.0 -1.7286578618564516 5e-16 6.273668877422515" Properties=species:S:1:pos:R:3:forces:R:3 source=Internal internal_id=mpf-alkali-TP-000407 energy_unit=eV forces_unit=eV/A stress_unit=eV/A^3 energy=0.86975299 stress="-1.6071959330827355 0.05606824495737892 0.012524808375983014 0.05606824495737892 -1.451196510812299 0.019342439371338505 0.012524808375983014 0.019342439371338505 -1.394259232496223" pbc="T T T"
Cs       1.72480415       0.08493396       3.45910653       4.38021535       2.19277942      -0.57956211
Cs       0.14292409       2.28886467       2.80376535       0.09531612       0.96470509      -1.31959918
Cs      -0.16188685       1.51321488       5.52895301       7.14847024      -2.70716206     -10.95471492
Cs       1.62385481       3.63293931       0.79465427       3.13371065       0.79554678       0.63038367
Li       1.87054839       3.72891816       5.56464392      -0.80560650      -3.55910246      -2.80218507
Li       0.80076169       1.00139104       0.89476948      -2.64522822       1.30675408       4.88691115
F        2.29259895       1.17097159       1.44606186      -8.03452934       4.16416951       1.25826667
F        1.61767383       0.43373095       6.06452358      -2.64638692      -3.72916271      -1.19354390
F       -0.00115965       4.55448548       1.70423588       1.75522591      -3.31096461       7.42047200
F        0.21647664       3.78011028       4.48054766      -4.55384771       0.02537635       6.05627705
F        3.22522694       2.37294118       0.32759844       5.57051675       1.65428007       0.52910224
F        1.85341574       2.48376551       4.45571020      -3.39785634       2.20278054      -3.93180761
5
Lattice="3.555674000186322 0.0 0.0 -2.00025269458e-05 3.556568999957951 0.0 -7.00093835903e-05 1.9997209771e-06 3.556626999482752" Properties=species:S:1:pos:R:3:forces:R:3 source=Internal internal_id=mpf-alkali-TP-000312 energy_unit=eV forces_unit=eV/A stress_unit=eV/A^3 energy=-10.534926 stress="-0.7610730467600643 0.044447591879378405 -0.169001036218341 0.044447591879378405 -0.8126325111646518 0.04190231132350324 -0.169001036218341 0.04190231132350324 -0.6737614659556017" pbc="T T T"
K        0.08310973       3.27358479       2.34625704      -0.90277405       0.90871297      -0.39938622
In       1.71532383       1.60553267       2.47570759       1.39265397      -0.30975220      -0.35919461
O        2.79714325       0.08192237       0.63888758      -3.15757716       1.13326387      -0.87780712
O        1.48259218       3.52986640       0.22688079       1.75856175      -0.15078849       2.13829467
O        3.07648815       1.87600515       0.64390243       0.90913549      -1.58143614      -0.50190672
10
Lattice="4.231300641350483 0.0 0.0 0.5908181803666674 4.354413162520666 0.0 0.5897187683332734 1.4671392725962857 4.101058736184978" Properties=species:S:1:pos:R:3:forces:R:3 source=Internal internal_id=mpf-alkali-TP-000174 energy_unit=eV forces_unit=eV/A stress_unit=eV/A^3 energy=-58.42660146 stress="-0.3645970901187675 0.18700912618509732 0.05375283923878363 0.18700912618509732 -0.4640892197133227 0.0981804148480557 0.05375283923878363 0.0981804148480557 -0.7109793288652637" pbc="T T T"
Ca       1.26380215       4.17035161       3.18696145      -4.38169585       2.10733942      -0.94115045
Ca       1.45683607       1.51865949       0.84450642      -2.01350192      -1.39295493       1.72000297
C        2.99649150       1.86106729       3.09966631      12.89553226      -4.08177097      -0.25111789
C        3.35166819       3.82485966       1.08724399       8.83715229      -1.52500093      -8.25371783
O        2.49243229       3.63570493       0.04425863       4.98156573       1.38224928       1.69524314
O        3.91541929       1.36223893       2.24717923      -1.87871799       3.39059528       4.14057784
O        4.80120089       3.90030102       1.09704552      -3.70132829      -4.46114775      -2.75892506
O        3.42119949       1.43704780       0.12271598      -2.85653733      -1.18339185      -2.97655553
O        1.96373655       2.15139390       2.67124511      -8.29011179       3.25802714      -0.40748071
O        2.96706793       3.94463553       2.12947475      -3.59235711       2.50605531       8.03312353
12
Lattice="3.985487000000502 0.0 0.0 -2.192514742e-06 4.752752026077965 0.0 -2.1925358183e-06 -2.3763758237283916 4.116052350481393" Properties=species:S:1:pos:R:3:forces:R:3 source=Internal internal_id=mpf-alkali-TP-000117 energy_unit=eV forces_unit=eV/A stress_unit=eV/A^3 energy=-58.00894219 stress="-0.8545282318102843 -0.0021268047827951433 -0.0004953068530008599 -0.0021268047827951433 -0.6824214054590703 -0.05308091597138352 -0.0004953068530008599 -0.05308091597138352 -0.7057711381192064" pbc="T T T"
Na       2.94110376      -0.08238407       2.94906919      -1.46607339      -0.54992728       0.31709632
Na       0.94694967       2.45144103       1.13724057       0.14478412       0.85263370       0.49617094
Na       1.90845642      -2.09552147       3.71340364       0.00328602       0.24235413       0.09109782
Na       3.92919757       4.48435939       0.41099606       0.53735286      -0.48264304       0.14642248
C        3.02242369       2.19483047       1.57001878      -1.13532681       1.63345281       1.43863304
C        0.95807307       0.18543586       2.56557247       1.15119612      -2.61979266      -4.00557839
O        2.64785122       3.43191715       1.43108143       0.43260304      -2.74396022      -0.46983532
O        0.61873328      -1.05442168       2.63952559       1.02441828       1.86129443       0.47341848
O        1.36062385       0.67464371       1.46454905      -0.73224711      -2.53370221       1.53997774
O        3.21733505       1.50023710       0.56480059      -0.34381205       0.56834670      -0.69002421
O        3.32040191       1.73601647       2.70537831      -0.55229396       2.06289226      -2.21916474
O        1.13721563       0.83042476       3.55889528       0.93611288       1.70905139       2.88178585
14
Lattice="4.836697609839383 0.0 0.0 -0.8444248918769244 4.762414673370605 0.0 -0.844424696925518 -1.0073197298641068 4.654665107563674" Properties=species:S:1:pos:R:3:forces:R:3 source=Internal internal_id=mpf-alkali-TP-000052 energy_unit=eV forces_unit=eV/A stress_unit=eV/A^3 energy=-60.00930777 stress="-0.367588343603422 -0.00110981417835953 -0.04207037949183387 -0.00110981417835953 -0.3267179474124555 0.015299714202395634 -0.04207037949183387 0.015299714202395634 -0.34511210890339317" pbc="T T T"
K        1.65727522       1.73866466       2.40594519       0.80850262       1.74236600       1.01119455
Li       0.95859551      -0.24933741       2.91688313      -1.23099002       0.83644935      -0.71295852
Li       2.34005356       1.19513894       0.48868864       1.70128581       0.62654054      -1.35230117
Li      -0.88757085       1.27838627       3.21318514      -3.27845324       2.08599252      -0.90442485
Li       0.63161815       2.58151801       4.25145940      -0.92677132       0.50044761      -0.22037228