28
Lattice="7.150075 0.0 0.0 0.0 5.89878 0.0 0.0 4.716051 9.469165" Properties=species:S:1:pos:R:3:forces:R:3 source=MPtrj mptrj_traj_id=mp-1178357 mptrj_snapshot_id=mp-1768415-0-0 energy_unit=eV forces_unit=eV/A stress_unit=eV/A^3 energy=-243.04360191 stress="-10.92621792894408 0.009171000693208968 0.062037531960970685 0.009171000693208968 -11.339163317343047 0.020387067777640114 0.062037531960970685 0.020387067777640114 -11.082192360330565" pbc="T T T"
Eu       7.10064653       4.30931868       2.86217822       0.69883907      -0.21395927      -2.67692293
Eu       2.53772607       3.87259890       5.38374111      -0.11075728      -0.92199406      -0.66644509
Eu       3.52560903       3.94748682       1.87240428      -0.16954036       0.31355646       4.27982769
Eu       6.11276357       9.10025760       8.82000639       0.31975165      -0.30198378       1.15067536
Eu       1.03731143       1.51457340       0.64915861       0.04133011      -1.12594808       0.46330926
Eu       3.62446597       6.66734418       7.59676072      -1.13668253      -0.63301169      -4.08667912
Eu       4.61234893       6.74223210       4.08542389       0.20534322       0.99939566      -0.18237600
Eu       0.04942847       6.30551232       6.60698678      -0.08486156       0.21857579       2.66457537
Co       5.61413879       3.62092386       5.53418720       0.13853209      -0.44032717       0.17850571
Co       2.03910129       9.35193264       8.66956030       0.39945720       0.85193503      -0.59617678
Co       5.11097371       1.26289836       0.79960470      -0.34168535      -0.43297574       0.53703636
Co       1.53593621       6.99390714       3.93497780      -0.00549571       0.63373151      -0.32959169
O        4.68273427       5.18845804       5.95300837       0.37322619      -0.33427481      -0.03706802
O        1.90112629       4.96451073       7.59173259       0.02542234      -0.74607246       0.42996221
O        1.09738636       5.01718157       0.79975621       0.75674168       0.00656264      -0.85471754
O        0.21545321       4.07389893       5.34417894      -1.41668205      -0.15792718      -0.24297048
O        4.67242386       3.23962393       3.93482629       0.71889325       0.12910766       0.75937548
O        3.79049071       8.89895757       8.85956856      -1.61410128       0.35093564       0.06268188
O        6.04237823       2.83043254       1.21842587      -0.33025566      -0.44578599       0.08215363
O        5.47616379       8.00834577       6.61201491       0.03274078       0.70472262      -0.56678948
O        1.67391121       2.60648523       2.85715009      -0.09893836      -0.64478218       0.42049164
O        1.10769677       7.78439846       8.25073913       0.47443029       0.46761476      -0.09612314
O        3.35958429       1.71587343       0.60959644       1.55257666      -0.20283431      -0.16461169
O        2.47765114       7.37520707       5.53433871      -0.76818791       0.00556654      -0.97444343
O        6.93462179       6.54093207       4.12498606       1.48158003       0.30475096       0.07924783
O        6.05268864       5.59764943       8.66940879      -0.73257129       0.28939627       0.86952154
O        5.24894871       5.65032027       1.87743241       0.00087710       0.81575893      -0.45208999
O        2.46734073       5.42637296       3.51615663      -0.40998234       0.51026626      -0.05035857
24
Lattice="0.0 6.927715 6.927715 6.927715 0.0 6.927715 6.927715 6.927715 0.0" Properties=species:S:1:pos:R:3:forces:R:3 source=MPtrj mptrj_traj_id=mp-1213042 mptrj_snapshot_id=mp-1331944-0-0 energy_unit=eV forces_unit=eV/A stress_unit=eV/A^3 energy=-241.42762366 stress="-8.04913605664817 -0.0 0.0 -0.0 -8.04913605664817 0.0 0.0 0.0 -8.04913605664817" pbc="T T T"
Gd       4.77780949       4.77780949       4.77780949       0.50501195       0.50501195       0.50501195
Gd       9.07762051       9.07762051       4.77780949      -0.50501195      -0.50501195       0.50501195
Gd       9.07762051       4.77780949       9.07762051      -0.50501195       0.50501195      -0.50501195
Gd       4.77780949       9.07762051       9.07762051       0.50501195      -0.50501195      -0.50501195
Gd       2.58503529       6.92771500       6.92771500      -0.94247556       0.00000000       0.00000000
Gd      11.27039471       6.92771500       6.92771500       0.94247556       0.00000000       0.00000000
Gd       6.92771500       2.58503529       6.92771500       0.00000000      -0.94247556       0.00000000
Gd       6.92771500      11.27039471       6.92771500       0.00000000       0.94247556       0.00000000
Gd       6.92771500       6.92771500       2.58503529       0.00000000       0.00000000      -0.94247556
Gd       6.92771500       6.92771500      11.27039471       0.00000000       0.00000000       0.94247556
Gd       7.79021552      10.39157250      10.39157250      -1.84493893       0.00000000       0.00000000
Gd      12.99292948      10.39157250      10.39157250       1.84493893       0.00000000       0.00000000
Gd      10.39157250       7.79021552      10.39157250       0.00000000      -1.84493893       0.00000000
Gd      10.39157250      12.99292948      10.39157250       0.00000000       1.84493893       0.00000000
Gd      10.39157250      10.39157250       7.79021552       0.00000000       0.00000000      -1.84493893
Gd      10.39157250      10.39157250      12.99292948       0.00000000       0.00000000       1.84493893
Mg       8.02481566       8.02481566       8.02481566      -0.14518431      -0.14518431      -0.14518431
Mg       5.83062127       5.83062127       8.02481566       0.14518431       0.14518431      -0.14518431
Mg       5.83062127       8.02481566       5.83062127       0.14518431      -0.14518431       0.14518431
Mg       8.02481566       5.83062127       5.83062127      -0.14518431       0.14518431       0.14518431
Ru       1.92572465       1.92572465       1.92572465      -1.57263618      -1.57263618      -1.57263618
Ru       5.00198342       5.00198342       1.92572465       1.57263618       1.57263618      -1.57263618
Ru       5.00198342       1.92572465       5.00198342       1.57263618      -1.57263618       1.57263618
Ru       1.92572465       5.00198342       5.00198342      -1.57263618       1.57263618       1.57263618
92
Lattice="7.9744658 0.0 0.0 0.0 11.47596495 0.0 0.0 0.0 11.47596495" Properties=species:S:1:pos:R:3:forces:R:3 source=MPtrj mptrj_traj_id=mp-680293 mptrj_snapshot_id=mp-680293-1-14 energy_unit=eV forces_unit=eV/A stress_unit=eV/A^3 energy=-676.27600446 stress="-3.8420896049752176 -0.0 -0.0 -0.0 -4.1443065236681305 -0.0 -0.0 -0.0 -4.1443065236681305" pbc="T T T"
Gd       0.00000000       5.73798247       0.00000000       0.00000000       0.00000000       0.00000000
Gd       3.98723290       8.60697371       2.86899124       0.00000000       0.00000000       0.00000000
Gd       3.98723290       2.86899124       8.60697371       0.00000000       0.00000000       0.00000000
Gd       0.00000000       5.73798247       5.73798247       0.00000000       0.00000000       0.00000000
Gd       0.00000000       0.00000000       5.73798247       0.00000000       0.00000000       0.00000000
Gd       0.00000000       0.00000000       0.00000000       0.00000000       0.00000000       0.00000000
Co       5.56130122       1.60950477       1.60950477       0.18348276      -0.29220060      -0.29220060
Co       7.11910578       9.82233498       2.86899124      -0.53648348       1.09050649       0.00000000
Co       5.29224474       6.62353220       1.02487253       0.44370861      -0.66305803      -0.38100356
Co       1.98852890       4.18036674       1.55761574      -0.47348660       0.31087675      -0.31087675
Co       5.56130122       4.12847770       1.60950477       0.18348276       0.29220060      -0.29220060
Co       0.85536002       8.60697371       1.65362997       0.53648348       0.00000000      -1.09050649
Co       7.11910578       2.86899124       9.82233498      -0.53648348       0.00000000       1.09050649
Co       0.22464892       8.60697371      10.51898951       0.16809482       0.00000000      -0.06988745
Co       1.98852890       4.18036674       4.18036674      -0.47348660       0.31087675       0.31087675
Co       2.68222106       0.88554972       6.76285500      -0.44370861      -0.66305803      -0.38100356
Co       4.20899753       8.60697371       5.97843217      -0.13153447       0.00000000       0.22095085
Co       2.41316458       7.34748725       9.86646018      -0.18348276      -0.29220060       0.29220060
Co       2.68222106      10.45109242       4.85243275      -0.44370861       0.38100356       0.66305803
Co       2.41316458       7.34748725       7.34748725      -0.18348276      -0.29220060      -0.29220060
Co       4.20899753       8.60697371      11.23551525      -0.13153447       0.00000000      -0.22095085
Co       2.68222106       0.88554972      10.45109242      -0.44370861      -0.66305803       0.38100356
Co       3.76546827       2.86899124       0.24044970       0.13153447       0.00000000       0.22095085
Co       4.26173530       8.60697371       8.60697371      -0.16690532       0.00000000       0.00000000
Co       0.22464892       8.60697371       6.69495791       0.16809482       0.00000000       0.06988745
Co       7.11910578       2.86899124       7.39161245      -0.53648348       0.00000000      -1.09050649
Co       3.76546827       2.86899124       5.49753278       0.13153447       0.00000000      -0.22095085
Co       2.68222106       6.76285500       0.88554972      -0.44370861      -0.38100356      -0.66305803
Co       0.85536002       1.65362997       8.60697371       0.53648348      -1.09050649       0.00000000
Co       5.29224474       1.02487253      10.59041523       0.44370861      -0.38100356       0.66305803
Co       5.29224474       1.02487253       6.62353220       0.44370861      -0.38100356      -0.66305803
Co       1.98852890       1.55761574       1.55761574      -0.47348660      -0.31087675      -0.31087675
Co       5.29224474      10.59041523       4.71310995       0.44370861       0.66305803       0.38100356
Co       5.56130122       1.60950477       4.12847770       0.18348276      -0.29220060       0.29220060
Co       2.68222106       4.85243275       6.76285500      -0.44370861       0.66305803      -0.38100356
Co       1.98852890       1.55761574       4.18036674      -0.47348660      -0.31087675       0.31087675
Co       5.29224474      10.59041523       1.02487253       0.44370861       0.66305803      -0.38100356
Co       2.41316458       9.86646018       7.34748725      -0.18348276       0.29220060      -0.29220060
Co       7.11910578       7.39161245       2.86899124      -0.53648348      -1.09050649       0.00000000
Co       7.74981688       2.86899124       0.95697544      -0.16809482       0.00000000       0.06988745
Co       3.76546827       0.24044970       2.86899124       0.13153447       0.22095085       0.00000000
Co       4.20899753      11.23551525       8.60697371      -0.13153447      -0.22095085       0.00000000
Co       5.29224474       4.71310995      10.59041523       0.44370861       0.38100356       0.66305803
Co       7.74981688       4.78100704       2.86899124      -0.16809482      -0.06988745       0.00000000
Co       5.98593690       7.29559821       9.91834921       0.47348660      -0.31087675       0.31087675
Co       5.98593690       9.91834921       9.91834921       0.47348660       0.31087675       0.31087675
Co       5.98593690       9.91834921       7.29559821       0.47348660       0.31087675      -0.31087675
Co       0.85536002       8.60697371       4.08435250       0.53648348       0.00000000       1.09050649
Co       5.98593690       7.29559821       7.29559821       0.47348660      -0.31087675      -0.31087675
Co       0.85536002       4.08435250       8.60697371       0.53648348       1.09050649       0.00000000
Co       5.29224474       6.62353220       4.71310995       0.44370861      -0.66305803       0.38100356
Co       0.22464892      10.51898951       8.60697371       0.16809482      -0.06988745       0.00000000
Co       0.22464892       6.69495791       8.60697371       0.16809482       0.06988745       0.00000000
Co       5.29224474       4.71310995       6.62353220       0.44370861       0.38100356      -0.66305803
Co       7.74981688       2.86899124       4.78100704      -0.16809482       0.00000000      -0.06988745
Co       5.56130122       4.12847770       4.12847770       0.18348276       0.29220060       0.29220060
Co       3.76546827       5.49753278       2.86899124       0.13153447      -0.22095085       0.00000000
Co       2.41316458       9.86646018       9.86646018      -0.18348276       0.29220060       0.29220060
Co       3.71273050       2.86899124       2.86899124       0.16690532       0.00000000       0.00000000
Co       2.68222106       6.76285500       4.85243275      -0.44370861      -0.38100356       0.66305803
Co       2.68222106      10.45109242       0.88554972      -0.44370861       0.38100356      -0.66305803
Co       2.68222106       4.85243275      10.45109242      -0.44370861       0.66305803       0.38100356
Co       7.74981688       0.95697544       2.86899124      -0.16809482       0.06988745       0.00000000
Co       4.20899753       5.97843217       8.60697371      -0.13153447       0.22095085       0.00000000
Si       6.57536069       8.60697371       4.95035062       0.50175336       0.00000000       0.31454690
Si       6.57536069       8.60697371       0.78763185       0.50175336       0.00000000      -0.31454690
Si       6.57536069       4.95035062       8.60697371       0.50175336       0.31454690       0.00000000
Si       1.39910511       2.86899124       6.52561433      -0.50175336       0.00000000      -0.31454690
Si       1.39910511      10.68833310       2.86899124      -0.50175336       0.31454690       0.00000000
Si       6.57536069       0.78763185       8.60697371       0.50175336      -0.31454690       0.00000000
Si       1.39910511       6.52561433       2.86899124      -0.50175336      -0.31454690       0.00000000
Si       1.39910511       2.86899124      10.68833310      -0.50175336       0.00000000       0.31454690
B        3.81123548       5.01481984       0.72316264       0.26729538      -0.16556510       0.16556510
B        0.78123696       2.86899124       2.86899124       0.26292620       0.00000000       0.00000000
B        5.86438882       5.83012885       2.86899124       0.36160786       0.00297790       0.00000000
B        3.81123548       0.72316264       5.01481984       0.26729538       0.16556510      -0.16556510
B        6.72533974       2.86899124       2.86899124       0.56606710       0.00000000       0.00000000
B        4.16323032       6.46114511      10.75280231      -0.26729538       0.16556510      -0.16556510
B        4.16323032       6.46114511       6.46114511      -0.26729538       0.16556510       0.16556510
B        4.16323032      10.75280231      10.75280231      -0.26729538      -0.16556510      -0.16556510
B        2.11007698       8.60697371       5.64583610      -0.36160786       0.00000000      -0.00297790
B        7.19322884       8.60697371       8.60697371      -0.26292620       0.00000000       0.00000000
B        5.86438882       2.86899124      -0.09214638       0.36160786       0.00000000      -0.00297790
B        1.24912606       8.60697371       8.60697371      -0.56606710       0.00000000       0.00000000
B        3.81123548       5.01481984       5.01481984       0.26729538      -0.16556510      -0.16556510
B        5.86438882       2.86899124       5.83012885       0.36160786       0.00000000       0.00297790
B        2.11007698       0.09214638       8.60697371      -0.36160786       0.00297790       0.00000000
B        3.81123548       0.72316264       0.72316264       0.26729538       0.16556510       0.16556510
B        2.11007698       5.64583610       8.60697371      -0.36160786      -0.00297790       0.00000000
B        2.11007698       8.60697371       0.09214638      -0.36160786       0.00000000       0.00297790
B        5.86438882      -0.09214638       2.86899124       0.36160786      -0.00297790       0.00000000
B        4.16323032      10.75280231       6.46114511      -0.26729538      -0.16556510       0.16556510
18
Lattice="0.0 4.22439583 4.37759223 0.0 -4.22439583 4.37759223 8.66320797 0.0 0.0" Properties=species:S:1:pos:R:3:forces:R:3 source=MPtrj mptrj_traj_id=mp-1521702 mptrj_snapshot_id=mp-1521702-0-13 energy_unit=eV forces_unit=eV/A stress_unit=eV/A^3 energy=-97.27144711 stress="-3.5427609087353877 -0.0 -0.0 -0.0 -3.5984919415571093 0.0 -0.0 0.0 -3.694398322080422" pbc="T T T"
K        4.33160399       0.00000000       8.70893599      -0.00000000       0.00000000      -0.13716671
Eu       0.00000000       0.00000000       4.45841834      -0.00000000       0.00000000      -0.44361409
Ge       6.43934767       2.08553454       2.19708903       0.71210985       0.06566653       0.03038596
Ge       2.22386030       2.08553454       2.19708903      -0.71210985       0.06566653       0.03038596
Ge       2.22386030      -2.08553454       2.19708903      -0.71210985      -0.06566653       0.03038596
Ge       6.43934767      -2.08553454       2.19708903       0.71210985      -0.06566653       0.03038596
O        6.64286540       2.18446271       4.37696580       0.25756907      -0.44418128       0.06827709
O        6.64286540      -2.18446271       4.37696580       0.25756907       0.44418128       0.06827709
O        2.02034257      -2.18446271       4.37696580      -0.25756907       0.44418128       0.06827709
O        2.02034257       2.18446271       4.37696580      -0.25756907      -0.44418128       0.06827709
O        6.46637601       0.00000000       6.29062989       0.53839883       0.00000000      -0.17147436
O        6.73695815       0.00000000       2.39339462       0.32152486       0.00000000       0.46681751
O        1.92624982       0.00000000       2.39339462      -0.32152486       0.00000000       0.46681751
O        2.19683196       0.00000000       6.29062989      -0.53839883       0.00000000      -0.17147436
O        0.00000000      -1.94353152       6.55683316      -0.00000000      -0.02235410      -0.23606750
O        4.33160399       1.94937056       2.23294952      -0.00000000       0.04010060       0.03378866
O        0.00000000       1.94353152       6.55683316      -0.00000000       0.02235410      -0.23606750
O        4.33160399      -1.94937056       2.23294952      -0.00000000      -0.04010060       0.03378866
80
Lattice="10.309752 0.0 -3.645048 -5.154876 8.928508 -3.645048 0.0 0.0 10.935143" Properties=species:S:1:pos:R:3:forces:R:3 source=MPtrj mptrj_traj_id=mp-557370 mptrj_snapshot_id=mp-1768446-0-0 energy_unit=eV forces_unit=eV/A stress_unit=eV/A^3 energy=-542.90420114 stress="-3.212472698359574 -0.003780313038755833 0.22319075014429274 -0.003780313038755833 -2.854720165262569 0.02322724267529145 0.22319075014429274 0.02322724267529145 -2.825678082956583" pbc="T T T"
Gd       0.00000000       6.69638100      -2.73378613       0.12710814      -0.64267868      -0.22966271
Gd       5.79923550       5.58031750      -2.73378625       0.00734279       0.54308538      -0.67518475
Gd       3.22179750       1.11606350       0.91126175       0.28220368      -1.04596770       0.22632097
Gd       5.15487600       2.23212700       6.37883313      -0.74373495      -0.36880353      -0.95490846
Gd      -0.64435950       3.34819050       6.37883325       0.25047644       0.75067509      -0.32218278
Gd      -1.93307850       7.81244450       2.73378537       0.70565185       0.22650854      -0.22080423
Gd       5.15487600       6.69638100       0.91126137      -0.38080522       0.25209925       0.99339169
Gd       0.00000000       2.23212700       2.73378563      -0.25700466       0.20516356       1.45710105
Gd       0.64435950       3.34819050      -0.91126212      -0.36316201       0.71420119      -1.49144806
Gd       1.93307850       7.81244450       2.73378525      -0.17234139      -0.81386697       0.48006847
Gd       7.08795450       1.11606350       0.91126163       0.41710632      -0.13433776       0.65803347
Gd       4.51051650       5.58031750       4.55630913      -0.89501623       0.15416550      -0.12138331
Fe       0.00000000       0.00000000       5.46757150       0.06424816       0.37149225       0.17966009
Fe      -2.57743800       6.69638100       6.37883312       1.11564246      -0.38056812       0.62214250
Fe       8.37667350       1.11606350       4.55630925       0.08980060       0.09334385      -0.20816296
Fe       5.15487600       0.00000000       3.64504750       0.15388188      -0.46814232       0.09759554
Fe       5.15487600       0.00000000      -1.82252400       0.09562403      -0.48727847      -0.12874700
Fe       2.57743800       6.69638100      -0.91126237      -1.27283796       0.15087273      -0.58338832
Fe       0.00000000       0.00000000       0.00000000      -0.31451338      -0.43272112       0.07746456
Fe      -2.57743800       4.46425400      -1.82252400       0.01366539       0.24447461      -0.69825574
Fe      -0.64435950       5.58031750       0.91126163      -0.30493221       0.87860233       0.47964165
Fe      -2.57743800       4.46425400       3.64504750       0.37682261       0.07571027       0.31190423
Fe       1.93307850       1.11606350       8.20135713       0.30971557      -0.38069498      -0.88227838
Fe       2.57743800       2.23212700       4.55630937       0.28637294       0.07951959       0.48948969
Fe       7.73231400       2.23212700      -2.73378613      -0.41773098       0.05016621       0.02446990
Fe       5.79923550       3.34819050       2.73378537      -0.19975774       0.61914372       0.41194455
Fe       0.64435950       5.58031750       4.55630925       0.03371679      -0.17740298       0.32955043
Fe       2.57743800       4.46425400       1.82252350       0.19177229       0.43945090       0.55644396
Fe       4.51051650       3.34819050      -0.91126225       0.06280820      -0.01115095      -0.16661381
Fe       3.22179750       7.81244450      -4.55631013       0.24003394      -0.72582405      -0.67500790
Fe       2.57743800       4.46425400      -3.64504800      -0.39935026       0.27842889      -0.36209026
Fe      -3.22179750       7.81244450      -0.91126225       0.23363088      -0.20087149      -0.05079925
O       -1.78109729       5.31895329       7.39594728      -0.03439134       0.66610797      -0.02150053
O        2.23541713       5.58125499       3.53919510      -0.37423937       0.21444454       0.12573245
O        4.01651442       8.66620629       1.92837540      -0.31750203       0.69056013       0.34924712
O        7.39029313       3.34725301       1.71667122      -0.09619527      -0.09604500       0.10047021
O        1.13836158       0.26230171       1.71667160      -0.03976970      -0.53746658      -0.53785781
O        1.35130950       2.86512250       7.79113245       0.51847948       0.23187107      -0.02919357
O       -2.79254582       6.32567828       4.53974258       0.10134934       0.23771466       0.63155193
O        4.38305188       7.06708372      -1.32148705      -0.25263726       0.76899148       0.22140211
O        3.37377871       3.60955471       5.57341244      -0.23926620       0.21265679       0.55141775
O       -0.57948023       4.20195229       4.14607748       0.21553926       0.35268984       0.51117789
O       -4.01651442       8.66620629       3.53920606       0.24436057       0.25870709      -0.35745335
O        0.77182412       1.86142428       4.96653405      -0.21643528      -0.46150687       0.24859657
O        3.80182930       0.85469929       4.96806858       0.50781493      -0.12520911      -0.50813385
O        0.06367303       7.32937650       4.14455365       0.48365223      -0.13446328       0.22122540
O       -0.77181381       1.86142428       0.50103359      -0.24228692      -0.58932727      -0.06249346
O        4.29703247       3.71983072      -2.75036377      -0.60201450       0.06746544       0.38606915
O        6.01271953       3.71983072       4.57287592      -0.06383032       0.37202768      -0.30144957
O        1.50448664       1.11700099      -0.89468435      -0.62348465      -0.38441438      -0.16240067
O        5.92668981       7.06708372       3.14401341       0.13881332       0.38058702       0.14078185
O        5.21853872       1.59913150       2.32202268       0.36982126      -0.27813453       0.63242395
O       -0.85784353       5.20867728      -0.92782892      -0.04262792       0.05464399       0.34917944
O       -1.35129919       2.86512250       8.61158902      -0.41507174      -0.51519760      -0.58411512
O        6.50793301       0.85469929       7.78959418       0.17425660       0.27363735       0.35240391
O        5.09120297       1.59913150      -0.49950665      -0.39847816       0.25105576      -0.47898949
O        2.36233018       2.60282972       2.71720785      -0.02139483       0.22699469       0.17229183
O       -3.65038936       7.81150701       0.92783927      -0.21260035       0.43423485      -0.12328139
O        1.35304670       8.07380871      -1.32302158      -0.39871021      -0.29124614       0.32129158
O        8.80526536       1.11700099       2.71720773       0.51276928       0.09070302       0.50997014
O        3.73816143       0.74442328       7.78959792      -0.31820384      -0.37323928       0.19141360
O        5.73435623       4.72655571      -0.50103048      -0.35127363      -0.41254228      -0.00774560
O        2.79254582       6.32567828       0.92783915       0.00324014       0.09595025      -0.47782761
O        9.17139042       0.26230171       0.10584094      -0.19119401      -0.40619152       0.38200501
O        0.57949054       4.20195229       1.32148991      -0.14191197       0.46950259      -0.32744978
O       -2.23541713       5.58125499       1.92837578       0.88535142       0.24866344       0.11524524
O        0.85784353       5.20867728       6.39541077       0.26296650      -0.34395661      -0.03997140
O       -1.41672488       8.18408472      -1.32301785       0.09476005       0.19284403       0.54987475
O        3.80356650       6.06338550      -4.14608545      -0.76563898      -0.31167868      -0.53267400
O        6.50617519       6.06338550      -4.96654202       0.22012522       0.38278954      -0.06604360
O        6.57160088       0.74442328       4.96806485       0.36559635      -0.46041089      -0.50894327
O        1.78109729       5.31895329      -1.92836544       0.20033608       0.36201975      -0.59871260
O        1.41671457       8.18408472      -4.14455092       0.34066310       0.05371427      -0.26746372
O        3.65038936       7.81150701       4.53973135       0.39825183      -0.05242975       0.23214995
O       -0.06366272       7.32937650       1.32302432      -0.34541070       0.19016134      -0.31735276
O       -1.35305701       8.07380871      -4.14454718       0.18398126      -0.74092060      -0.28447512
O        7.94742182       2.60282972      -0.89469558      -0.02809770      -0.17163346      -0.74325543
O        2.91945887       3.34725301       0.10585190       0.67668784       0.02015349      -0.12553874
O        6.93597329       3.60955471      -3.75090028       0.49147804      -0.81563445      -0.09239581
O        4.57538546       4.72655571       2.32355709       0.00593480      -0.15603857       0.63649161
6
Lattice="2.765459 -4.789915 0.0 2.765459 4.789915 0.0 0.0 0.0 3.032661" Properties=species:S:1:pos:R:3:forces:R:3 source=MPtrj mptrj_traj_id=mp-22335 mptrj_snapshot_id=mp-1783762-0-0 energy_unit=eV forces_unit=eV/A stress_unit=eV/A^3 energy=-53.14547289 stress="-3.146893635604597 0.05074252864793769 -0.06768580330790958 0.05074252864793769 -3.1324139611050303 -0.0479370833046174 -0.06768580330790958 -0.0479370833046174 -3.448047198099522" pbc="T T T"
Gd       0.00000000       0.00000000       0.00000000      -0.00013754       0.00006043      -0.00013620
B        2.76545900       1.59664153       0.00000000       0.04059110      -0.00204980       0.00067107
B        2.76545900      -1.59664153       0.00000000      -0.04055584       0.00203940      -0.00061124
Ru       1.38272950      -2.39495750       1.51633050       0.00005406      -0.00003289       0.00001394
Ru       2.76545900       0.00000000       1.51633050       0.00003841      -0.00002562       0.00003205
Ru       1.38272950       2.39495750       1.51633050       0.00000981       0.00000848       0.00003038
20
Lattice="4.137365 -2.692479 0.0 4.137365 2.692479 0.0 2.385177 0.0 4.321824" Properties=species:S:1:pos:R:3:forces:R:3 source=MPtrj mptrj_traj_id=mp-694932 mptrj_snapshot_id=mp-1921728-0-0 energy_unit=eV forces_unit=eV/A stress_unit=eV/A^3 energy=-16.42594455 stress="-3.120428154920684 0.0 -0.36649998695324865 0.0 -2.2164456425389876 -0.0 -0.36649998695324865 -0.0 -2.3650345888382596" pbc="T T T"
Na       1.97305285       0.00000000       0.79993073       0.41543223      -0.00000000       0.16842783
Na       8.68685415       0.00000000       3.52189327      -0.41543223      -0.00000000      -0.16842783
Co       4.99376949       0.87693772       0.42639548      -0.10955923      -0.06335232      -0.36373917
Co       6.78621668       0.84421871       1.13271982       0.25572393       0.28795458       0.00321958
Co       4.44437620      -1.72115643       1.78149043      -0.29695180      -0.22460226       0.09847020
Co       3.87369032       0.84421871       3.18910418      -0.25572393       0.28795458      -0.00321958
Co       6.21553080      -1.72115643       2.54033357       0.29695180      -0.22460226      -0.09847020
Co       5.66613751       0.87693772       3.89542852       0.10955923      -0.06335232       0.36373917
O        0.55014714       0.00000000       0.22304501      -3.90783400      -0.00000000      -1.58434504
O        7.19481895       0.00000000       2.91698053      -2.37789884       0.00000000      -0.96406660