9
Lattice="3e-08 -4.67691765 -1e-08 4.97244633 -2.33845939 -1.67750663 4.8010712 -2.33845937 8.01088199" Properties=species:S:1:pos:R:3:forces:R:3 source=MPtrj mptrj_traj_id=mp-1080834 mptrj_snapshot_id=mp-1080834-0-1 energy_unit=eV forces_unit=eV/A stress_unit=eV/A^3 energy=-28.75765745 stress="0.0008926831358242223 -1.185886733917819e-10 0.0007746200973649859 -1.185886733917819e-10 0.0030173324072012325 -8.113961863648236e-11 0.0007746200973649859 -8.113961863648236e-11 0.001690745998183024" pbc="T T T"
Na       3.87535312      -2.33845927       4.61262141      -0.00426214       0.00000000      -0.01015544
Na       5.89816444      -7.01537714       1.72075394       0.00426214      -0.00000000       0.01015544
Na       7.26686449      -7.01537730       5.58927162       0.00322031      -0.00000000      -0.00638138
Na       2.50665307      -2.33845911       0.74410373      -0.00322031       0.00000000       0.00638138
Na       0.00000000       0.00000000       0.00000000      -0.00000000       0.00000000       0.00000000
As       5.26125714      -4.67691825       6.18518219       0.00997059      -0.00000000       0.07052510
As       4.51226042      -4.67691816       0.14819316      -0.00997059       0.00000000      -0.07052510
As       5.93233380      -4.67691835       3.82184346      -0.00036177       0.00000000       0.04283861
As       3.84118376      -4.67691806       2.51153189       0.00036177      -0.00000000      -0.04283861
18
Lattice="2.77174851 -5.33061932 0.0 6.18928598 -0.16769185 6.69879944 -3.41753845 -5.16292744 6.69879943" Properties=species:S:1:pos:R:3:forces:R:3 source=MPtrj mptrj_traj_id=mp-1024050 mptrj_snapshot_id=mp-1024050-1-10 energy_unit=eV forces_unit=eV/A stress_unit=eV/A^3 energy=-54.66522883 stress="0.0016026563155801608 0.001026464971869848 1.497962190211982e-10 0.001026464971869848 0.00016228983535546048 -6.241509125883258e-12 1.497962190211982e-10 -6.241509125883258e-12 -0.00203191240449787" pbc="T T T"
Na       4.61605699      -5.96479136       6.69879944       0.02298184       0.01457026       0.00000000
Na       0.92743905      -4.69644725       6.69879943      -0.02298184      -0.01457026      -0.00000000
Na      -0.10565223      -8.61954014       6.69879943       0.02512697       0.01044475       0.00000000
Na       5.64914827      -2.04169847       6.69879944      -0.02512697      -0.01044475      -0.00000000
Zn       4.15762203      -7.99592896      10.04819915       0.00000000       0.00000000       0.00000000
Zn       1.38587401      -2.66530965       3.34939972       0.00000000       0.00000000       0.00000000
Zn       4.91055112      -4.21851127      10.04819915      -0.00594141      -0.00308934      -0.00000000
Zn       0.63294443      -6.44272733      10.04819915       0.00594141       0.00308934       0.00000000
Zn       0.63294492      -6.44272734       3.34939972       0.00594141       0.00308934       0.00000000
Zn       4.91055161      -4.21851128       3.34939972      -0.00594141      -0.00308934      -0.00000000
Se       0.77386470      -4.53198381       1.82633589      -0.01967943      -0.04936396       0.00047091
Se       1.99788355      -0.79863550       1.82633589       0.01967943       0.04936396       0.00047091
Se       2.27803640      -7.42480323       4.87246354      -0.05171272       0.01224237      -0.00047091
Se       3.26545991      -3.23643539       4.87246354       0.05171272      -0.01224237      -0.00047091
Se      -1.41965464      -5.96156295       4.87246354       0.01967943       0.04936396      -0.00047091
Se       6.96315094      -4.69967567       4.87246355      -0.01967943      -0.04936396      -0.00047091
Se       3.26545964      -3.23643538       8.52513533       0.05171272      -0.01224237       0.00047091
Se       2.27803613      -7.42480322       8.52513533      -0.05171272       0.01224237       0.00047091
6
Lattice="-2.068918 2.068918 7.248125 2.068918 -2.068918 7.248125 2.068918 2.068918 -7.248125" Properties=species:S:1:pos:R:3:forces:R:3 source=MPtrj mptrj_traj_id=mp-1070925 mptrj_snapshot_id=mp-1436393-0-0 energy_unit=eV forces_unit=eV/A stress_unit=eV/A^3 energy=-43.02600188 stress="-0.0005046004288817545 -0.0 -0.0 -0.0 -0.0005046004288817545 -0.0 -0.0 -0.0 -0.0015536178644006838" pbc="T T T"
La       0.00000000       2.06891800       3.68583102       0.00000000      -0.00000000       0.07242797
La       0.00000000       0.00000000       0.06176852      -0.00000000       0.00000000       0.07242797
P        2.06891800       0.00000000       4.84628483      -0.00000000      -0.00000000      -0.02351272
P        0.00000000       0.00000000       8.47034733       0.00000000       0.00000000      -0.02351272
Rh       2.06891800      -0.00000000       2.44444465       0.00000000       0.00000000      -0.04891526
Rh       0.00000000       0.00000000       6.06850715       0.00000000      -0.00000000      -0.04891526
16
Lattice="2.97098656 0.0 0.0 -1.48549328 2.56336743 0.22183953 0.0 0.01090754 19.76841636" Properties=species:S:1:pos:R:3:forces:R:3 source=MPtrj mptrj_traj_id=mp-1174567 mptrj_snapshot_id=mp-1174567-0-0 energy_unit=eV forces_unit=eV/A stress_unit=eV/A^3 energy=-92.66917787 stress="0.0007710695961741997 0.0 0.0 0.0 0.000716816588814376 0.0006268888691550679 0.0 0.0006268888691550679 -0.00647266387199051" pbc="T T T"
Li       1.48549327       1.95110931       7.29651327       0.00000000      -0.00655093       0.07569635
Li       0.00000001       0.63985273      12.50092272      -0.00000000       0.00161051      -0.01860953
Li      -0.00000001       1.93987601      17.37354135       0.00000000      -0.00161051       0.01860953
Li       1.48549329       0.61771189       2.80953444      -0.00000000       0.00655093      -0.07569635
Li       0.00000000       1.28441060       5.05302386       0.00000000       0.00000000       0.00000000
Mn       0.00000000       0.01242438      19.75088915      -0.00000000       0.01168259      -0.13499287
Mn       0.00000000       2.56730436      10.12357492       0.00000000      -0.01168259       0.13499287
Co       1.48549328       1.28986437      14.93723203       0.00000000       0.00000000      -0.00000000
O        1.48549329       1.61617602      11.16668425      -0.00000000      -0.00457242       0.05283452
O        0.00000000       0.34009147      15.96467929       0.00000000      -0.00566964       0.06551294
O       -0.00000001       1.62387015       1.13055162      -0.00000000       0.00322633      -0.03728039
O        1.48549328       0.32168725       6.23011429       0.00000000      -0.00266007       0.03073722
O        1.48549328       2.24713395       3.87593342       0.00000000       0.00266007      -0.03073722
O        0.00000001       0.94495105       8.97549609       0.00000000      -0.00322633       0.03728039
O        0.00000000       2.23963727      13.90978478      -0.00000000       0.00566964      -0.06551294
O        1.48549327       0.96355272      18.70777982       0.00000000       0.00457242      -0.05283452
16
Lattice="6.27049867 -0.02376403 0.0 -3.15582959 5.46605662 0.0 0.0 0.0 9.96417406" Properties=species:S:1:pos:R:3:forces:R:3 source=MPtrj mptrj_traj_id=mp-1027999 mptrj_snapshot_id=mp-1027999-0-10 energy_unit=eV forces_unit=eV/A stress_unit=eV/A^3 energy=-27.57235279 stress="0.0012077262736700147 -2.007397285821136e-05 -0.0 -2.007397285821136e-05 0.0012309054472504262 -0.0 -0.0 -0.0 0.0014962186059131392" pbc="T T T"
Mg       0.00884219       1.82712027       6.22760879      -0.01156535      -0.00667726       0.00000000
Mg      -1.57417326       4.55720372       6.22760879      -0.01443201      -0.00833232       0.00000000
Mg       3.19588899       1.84147839       1.24552176       0.03744437       0.03183429       0.00000000
Mg       3.11928206       1.80599072       6.22760879       0.00100336      -0.00042802       0.00000000
Mg       1.61480009       4.58000441       1.24552176       0.04629149       0.01651062       0.00000000
Mg       1.54576339       4.53140470       6.22760879       0.00013100       0.00108294       0.00000000
Mg       1.53111855       0.86924077       3.54845372      -0.00651421      -0.00697675      -0.00466737
Mg       1.53111855       0.86924077       8.90676385      -0.00651421      -0.00697675       0.00466737
Mg      -0.05957401       3.62440081       3.54845372      -0.00929915      -0.00215310      -0.00466737
Mg      -0.05957401       3.62440081       8.90676385      -0.00929915      -0.00215310       0.00466737
Mg       4.71528458       0.90035531       3.70872258      -0.00770790      -0.00445016       0.00613379
Mg       4.71528458       0.90035531       8.74649499      -0.00770790      -0.00445016      -0.00613379
Mg       3.15017309       3.64077557       3.66973257      -0.00507780      -0.00293167       0.00758221
Mg       3.15017309       3.64077557       8.78548501      -0.00507780      -0.00293167      -0.00758221
Zn      -0.04018023       1.79881713       1.24552176      -0.01214333      -0.00701096       0.00000000
Cu      -1.62687501       4.52677635       1.24552176       0.01046861       0.00604405       0.00000000
12
Lattice="2.75674548 0.0 2.68770877 2.67437054 0.0 -2.74235761 0.0 17.06436155 0.0" Properties=species:S:1:pos:R:3:forces:R:3 source=MPtrj mptrj_traj_id=mp-1102052 mptrj_snapshot_id=mp-1102052-0-0 energy_unit=eV forces_unit=eV/A stress_unit=eV/A^3 energy=-72.3115214 stress="0.0005960851803736419 -0.0 -3.3628277494835355e-05 -0.0 0.001200921936458705 -0.0 -3.3628277494835355e-05 -0.0 0.0007937836899436051" pbc="T T T"
Dy       2.82871143       2.48835558       1.41568375      -0.05902814      -0.02265834      -0.04352211
Dy       2.64359206      11.02053635       1.24470060       0.05902814      -0.02265834       0.04352211
Dy       2.60240459      14.57600597      -1.47033259       0.05902814       0.02265834       0.04352211
Dy       2.78752396       6.04382520      -1.29934944      -0.05902814       0.02265834      -0.04352211
As       4.16537642       8.49941106       0.04085220      -0.03382536       0.02528948      -0.00135078
As       3.98129761      17.03159183      -0.12282546       0.03382536       0.02528948       0.00135078
As       1.26573960       8.56495049      -0.09550104       0.03382536      -0.02528948       0.00135078
As       1.44981841       0.03276972       0.06817662      -0.03382536      -0.02528948      -0.00135078
S        2.82617784       5.34779583       1.41443656      -0.03231657      -0.05406456      -0.03725005
S        2.64612565      13.87997660       1.24594779       0.03231657      -0.05406456       0.03725005
S        2.60493818      11.71656572      -1.46908540       0.03231657       0.05406456       0.03725005
S        2.78499037       3.18438495      -1.30059663      -0.03231657       0.05406456      -0.03725005
14
Lattice="5.99798531 -0.00104775 0.00010188 -0.00183695 10.18093861 2.94e-06 6.334e-05 6.3e-07 3.7077267" Properties=species:S:1:pos:R:3:forces:R:3 source=MPtrj mptrj_traj_id=mp-1394209 mptrj_snapshot_id=mvc-15895-1-16 energy_unit=eV forces_unit=eV/A stress_unit=eV/A^3 energy=-102.85132225 stress="0.00571033801219227 -0.0015138915700747691 6.2105013085458706e-06 -0.0015138915700747691 0.00192983309072138 -1.9748571779933443e-06 6.2105013085458706e-06 -1.9748571779933443e-06 0.000643591965213627" pbc="T T T"
W        4.35938810       3.71895384       0.04512872       0.15629817       0.03354539      -0.09976061
W        1.63676784       6.46102795       0.04517827      -0.15589015      -0.03843751      -0.09976284
W        1.36276143       1.36606831       0.04472104       0.06039240       0.16978741      -0.08438376
W        4.63346307       8.81383447       0.04481455      -0.06171966      -0.16413788      -0.08407910
O        4.78485535       4.10980068       1.84844126      -0.01324738       0.05630734       0.04609949
O        1.21116689       6.06996419       1.84844601       0.01443206      -0.05561598       0.04627758
O        1.78651115       0.98124605       1.84978953       0.00014878      -0.08986344       0.02466660
O        4.20959826       9.19867804       1.84987880       0.00093291       0.08942626       0.02449138
O        0.29975607       2.88407326      -0.05082592      -0.08174970      -0.25105367       0.06301510
O        5.69643211       7.29588368       3.65705661       0.08411609       0.24843054       0.06296188
O        3.29691614       2.20585660       3.65714892      -0.11643532       0.15752278       0.05509416
O        2.69940168       7.97398897       3.65714261       0.11716196      -0.15679856       0.05524623
O        2.99815401       5.08992058       0.02059963      -0.00271385       0.00279542      -0.00618290
O        0.00010900      -0.00000276       0.02179484      -0.00172630      -0.00190809      -0.00368320
48
Lattice="8.19096102 0.0 0.79315988 -0.07232888 8.19064167 0.79315988 0.0 0.0 21.4179" Properties=species:S:1:pos:R:3:forces:R:3 source=MPtrj mptrj_traj_id=mp-21705 mptrj_snapshot_id=mp-21705-1-0 energy_unit=eV forces_unit=eV/A stress_unit=eV/A^3 energy=-172.42499557 stress="-0.016133284953998003 0.00011591720762175785 -0.0004637279687859992 0.00011591720762175785 -0.01613123770155566 -0.00046784107960939236 -0.0004637279687859992 -0.00046784107960939236 -0.01597139034972492" pbc="T T T"
K        7.27951120       6.46978786      20.99301384      -0.00639459       0.02759857      -0.01046691
K        1.71337701       0.85428393      12.72015592      -0.02765396       0.00615064       0.01046691
K        0.83912094       1.72085381       2.01120592       0.00639459      -0.02759857       0.01046691
K        6.40525513       7.33635774      10.28406384       0.02765396      -0.00615064      -0.01046691
K        3.16300371       6.16100066      20.55994803       0.00932470      -0.02198169      -0.00423454
K        1.98580204       4.97335762      13.15322173       0.02206318      -0.00913023       0.00423454
K        4.95562843       2.02964101       2.44427173      -0.00932470       0.02198169       0.00423454
K        6.13283010       3.21728405       9.85099803      -0.02206318       0.00913023      -0.00423454
Se       2.41867555       3.12964418      10.40225193       0.09851056      -0.01730483       0.35372866
Se       5.01046768       5.74442463       1.89301783       0.01817404      -0.09835392      -0.35372866
Se       5.69995659       5.06099749      12.60196783      -0.09851056       0.01730483      -0.35372866
Se       3.10816446       2.44621704      21.11120193      -0.01817404       0.09835392       0.35372866
Se       1.74863379       7.23184516      10.73469655      -0.15452209      -0.03435985       0.32322259
Se       0.90250995       6.37821648       1.56057321       0.03299403       0.15481948      -0.32322259
Se       6.36999835       0.95879651      12.26952321       0.15452209       0.03435985      -0.32322259
Se       7.21612219       1.81242519      21.44364655      -0.03299403      -0.15481948       0.32322259
Se       1.43660590       0.21410337      17.83750588      -0.17545669      -0.35337651      -0.05033842
Se       7.91722282       6.75220118      15.87566388       0.35181339       0.17857028       0.05033842
Se       6.68202624       7.97653830       5.16671388       0.17545669       0.35337651       0.05033842
Se       0.20140932       1.43844049       7.12855588      -0.35181339      -0.17857028      -0.05033842
Se       3.53739242       6.88677342      15.46062662      -0.30541623      -0.18056404      -0.10328826
Se       1.26336356       4.59257469      18.25254314       0.17786007       0.30699876       0.10328826
Se       4.58123972       1.30386825       7.54359314       0.30541623       0.18056404       0.10328826
Se       6.85526858       3.59806698       4.75167662      -0.17786007      -0.30699876      -0.10328826
Se       5.42296852       0.22499693      18.23679197       0.17241643      -0.33122882       0.04985275
Se       7.94153058       2.76589779      15.47637779       0.33273840      -0.16948485      -0.04985275
Se       2.69566362       7.96564474       4.76742779      -0.17241643       0.33122882      -0.04985275
Se       0.17710156       5.42474388       7.52784197      -0.33273840       0.16948485       0.04985275
Se       3.55377039       2.68538378      15.04662827      -0.30616513       0.15845606      -0.06961505
Se       5.46473402       4.61329701      18.66654149      -0.16115342       0.30475397       0.06961505
Se       4.56486175       5.50525789       7.95759149       0.30616513      -0.15845606       0.06961505
Se       2.65389812       3.57734466       4.33767827       0.16115342      -0.30475397      -0.06961505
Ag       4.57172268       3.58741915       6.14763488       0.01822343      -0.01806322       0.00000000
Ag       3.54690946       4.60322252      16.85658488      -0.01822343       0.01806322       0.00000000
Ag       0.46561129       7.65743090       6.14763488      -0.00472025       0.00467875       0.00000000
Ag       7.65302085       0.53321077      16.85658488       0.00472025      -0.00467875       0.00000000
In       2.25737441       1.23981743       8.64321603       0.03869739      -0.01665752       0.03842959
In       6.89879641       5.92240727       3.65205373       0.01699858      -0.03854879      -0.03842959
In       5.86125773       6.95082424      14.36100373      -0.03869739       0.01665752      -0.03842959
In       1.21983573       2.26823440      19.35216603      -0.01699858       0.03854879       0.03842959
In       2.24433018       5.33268107       9.05528801       0.01118683      -0.02276274       0.03216120
In       2.80597715       5.89930966       3.23998175       0.02286063      -0.01098539      -0.03216120
In       5.87430196       2.85796060      13.94893175      -0.01118683       0.02276274      -0.03216120
In       5.31265499       2.29133201      19.76423801      -0.02286063       0.01098539       0.03216120
In       0.51197826       3.60330899       5.75542517       0.04232121       0.02701081      -0.00489113
In       4.51998457       7.64686497       6.53984459      -0.02663605      -0.04255807       0.00489113
In       7.60665388       4.58733268      17.24879459      -0.04232121      -0.02701081       0.00489113
In       3.59864757       0.54377670      16.46437517       0.02663605       0.04255807      -0.00489113
37
Lattice="-4.96786082 6.67176971 3.52427878 4.97048667 -6.67176971 1.26869943 4.96786082 6.67176971 -3.52427878" Properties=species:S:1:pos:R:3:forces:R:3 source=MPtrj mptrj_traj_id=mp-742859 mptrj_snapshot_id=mp-742859-1-4 energy_unit=eV forces_unit=eV/A stress_unit=eV/A^3 energy=-211.50705153 stress="0.004989814678489159 -0.0 -0.0009201187627266118 -0.0 -0.001882983724037624 -0.0 -0.0009201187627266118 -0.0 0.004077871899502381" pbc="T T T"
Fe       0.00000000       0.00000000       0.00000000       0.00000000       0.00000000       0.00000000
Fe       0.00000000       5.21301408       0.00000000       0.00000000      -0.02109857       0.00000000
Fe       0.00000000       8.13052534       0.00000000       0.00000000       0.02109857       0.00000000
P       -1.87836277       6.67176971       2.52963067       0.34857770       0.00000000      -0.31533261
P        6.84884944       0.00000000      -1.26093124      -0.34857770       0.00000000       0.31533261
H        3.08518575       8.39839956       0.51370743       0.04433623      -0.06666111      -0.03695400
H        1.88530092       1.72662985       0.75499200      -0.04433623      -0.06666111       0.03695400
H        1.88530092      -1.72662985       0.75499200      -0.04433623       0.06666111       0.03695400
H        3.08518575       4.94513986       0.51370743       0.04433623       0.06666111      -0.03695400
H        3.70934365       7.78362760      -0.80948034      -0.04381812      -0.05306584      -0.03396824
H        1.26114297       1.11185783       2.07817981       0.04381812      -0.05306584       0.03396824
H        1.26114302      -1.11185789       2.07817977       0.04381812       0.05306584       0.03396824
H        3.70934370       5.55991188      -0.80948038      -0.04381812       0.05306584      -0.03396824
H        3.66937094       2.63267846      -1.53297712      -0.01774002      -0.11617475       0.13658801
H        6.26897655       2.63267846      -0.72260223       0.01774002      -0.11617475      -0.13658801
H        1.30111573       4.03909125       2.80167655       0.01774002       0.11617475      -0.13658801
H       -1.29848988       4.03909125       1.99130166      -0.01774002       0.11617475       0.13658801
H        4.53311611       3.74974821      -2.27054266       0.02406808       0.02070186       0.03733115
H        5.40523143       3.74974814       0.01496328      -0.02406808       0.02070186      -0.03733115
H        0.43737056       2.92202150       3.53924209      -0.02406808      -0.02070186      -0.03733115
H       -0.43474476       2.92202157       1.25373615       0.02406808      -0.02070186       0.03733115
O        1.56270027      -0.00000000       3.42843068      -0.22648047       0.00000000       0.01531781
O        3.40778640       6.67176971      -2.15973125       0.22648047       0.00000000      -0.01531781
O       -1.11065727       6.67176971       1.19017397       0.19876914       0.00000000      -0.11123130
O        6.08114394       0.00000000       0.07852546      -0.19876914       0.00000000       0.11123130
O        3.39688336      -1.29252742      -0.18563192      -0.05349104      -0.18678116       0.13207337
O        1.57360326       5.37924236       1.45433139       0.05349104      -0.18678116      -0.13207337
O        1.57360331       7.96429713       1.45433135       0.05349104       0.18678116      -0.13207337
O        3.39688341       1.29252735      -0.18563196      -0.05349104       0.18678116       0.13207337
O        1.01541697       1.56470480       1.22333603       0.01812227       0.08654761      -0.12157807
O       -1.01279112       1.56470480       3.56964218      -0.01812227       0.08654761       0.12157807
O        3.95506970       5.10706491       0.04536340      -0.01812227      -0.08654761       0.12157807
O        5.98327779       5.10706491      -2.30094275       0.01812227      -0.08654761      -0.12157807
O       -1.02901023       9.65141195       1.10676505       0.07366622       0.20844429      -0.03205261
O        5.99949695       2.97964218       0.16193434      -0.07366622       0.20844429       0.03205261
O        5.99949690      -2.97964224       0.16193438      -0.07366622      -0.20844429       0.03205261
O       -1.02901028       3.69212753       1.10676509       0.07366622      -0.20844429      -0.03205261
28
Lattice="3.18522592 3.814e-05 0.02057159 0.18561583 0.00404866 9.4278148 -0.00012006 -9.36382939 -0.00410597" Properties=species:S:1:pos:R:3:forces:R:3 source=MPtrj mptrj_traj_id=mp-765999 mptrj_snapshot_id=mp-1664499-0-0 energy_unit=eV forces_unit=eV/A stress_unit=eV/A^3 energy=-204.57627092 stress="0.0005876884531805547 -0.00010836123667396359 -0.000247696811230364 -0.00010836123667396359 -0.00011804847077693671 0.0002884573985165469 -0.000247696811230364 0.0002884573985165469 0.0014795523534829502" pbc="T T T"
Li       0.88043415      -7.56490015       3.85431136      -0.00134656      -0.00678240       0.02293861
Li       0.97374218      -6.47537425       8.56650576      -0.00292384       0.00646924       0.02278605
Li       2.39694714      -2.88423318       0.87764820       0.00266623      -0.00686586      -0.02253934
Li       2.49026952      -1.79507028       5.58972073       0.00122934       0.00690139      -0.02276217
V        0.92754676      -0.57300838       8.31352103       0.00491879       0.01582588      -0.01603747
V        2.44311789      -8.78674037       1.13058651      -0.00571043      -0.01501992       0.01796314
V        0.83595153      -4.10667542       3.59538761      -0.00633473      -0.01662443       0.00205678
V        2.53496650      -5.25331561       5.84884929       0.00659527       0.02046421      -0.00348199
C        0.87666081      -1.21717751       3.15371948      -0.01027207       0.00695666      -0.04129809
C        0.97019227      -3.45922625       7.86664631      -0.00617280      -0.01610830      -0.03922165
C        2.40048315      -5.90061584       1.57772049       0.00542472       0.01891762       0.03102652
C        2.49406801      -8.14237395       6.29080833       0.00957974      -0.01070351       0.03493965
O        0.98598446      -8.30494305       9.41476425       0.01188506       0.01311990       0.00421665
O        0.89363974      -5.73501351       4.70554369      -0.00310099      -0.00496954      -0.00071357
O        2.47725032      -3.62473024       4.73865967       0.00366047       0.00407811       0.00107761
O        2.38478202      -1.05485271       0.02933243      -0.01248320      -0.01333508      -0.00363396
O        0.81301453      -2.32869011       2.46128744      -0.00351552      -0.02314095       0.00897655
O        0.90855075      -2.34888138       7.17336990      -0.00715061       0.04389314       0.00027020
O        2.46225218      -7.01091710       2.27094731       0.00773450      -0.04451226       0.00092589
O        2.55773787      -7.03096963       6.98337330       0.00356610       0.02200381      -0.00927093
O        0.89339769      -0.06530284       2.45724217       0.00127306      -0.00333592      -0.00469267
O        0.98622787      -4.61192206       7.17126843       0.00288072      -0.00043878      -0.00223684
O        2.38452514      -4.74782793       2.27299004      -0.00260652      -0.00065576       0.00195862
O        2.47739541      -9.29444125       6.98703381      -0.00153850       0.00490007       0.00372483
O        0.90491960      -1.19370914       4.40588693       0.00512262      -0.01208235      -0.01759855
O        0.99755107      -3.48062671       9.11885747       0.00446836       0.00512867      -0.00543579
O        2.37290396      -5.87923882       0.32543757      -0.00329727      -0.00594610       0.01194965
O        2.46563683      -8.16561838       5.03856341      -0.00455193       0.01186246       0.02411229
24
Lattice="-2.50588389 -4.34194932 0.0 -2.50588389 4.34194932 0.0 0.0 0.0 -15.96269682" Properties=species:S:1:pos:R:3:forces:R:3 source=MPtrj mptrj_traj_id=mp-1192029 mptrj_snapshot_id=mp-1192029-0-3 energy_unit=eV forces_unit=eV/A stress_unit=eV/A^3 energy=-138.94965295 stress="0.0031112887276503695 -0.0 -0.0 -0.0 0.0035333112445326727 0.0 -0.0 0.0 0.0033534149982273917" pbc="T T T"
Tm      -2.50588389      -1.44659649      -0.65248449       0.00000000      -0.01094239      -0.06672064
Tm      -2.50588389       1.44659649     -15.31021233       0.00000000       0.01094239       0.06672064
Tm      -2.50588389       1.44659649      -8.63383290       0.00000000       0.01094239      -0.06672064
Tm      -2.50588389      -1.44659649      -7.32886392       0.00000000      -0.01094239       0.06672064
Tm      -2.50588389      -1.44611965      -3.99067420       0.00000000      -0.01756466      -0.00000000
Tm      -2.50588389       1.44611965     -11.97202262       0.00000000       0.01756466       0.00000000
Al      -2.50588389      -1.44674255     -11.97202262       0.00000000      -0.01212124      -0.00000000
Al      -2.50588389       1.44674255      -3.99067420       0.00000000       0.01212124       0.00000000
Ni      -3.75035234      -0.72862443      -9.99755881      -0.18532167       0.10608247       0.04826687
Ni      -2.50588389      -2.88490645      -9.99757541       0.00000000      -0.21109377       0.04706824
Ni      -1.26141544      -0.72862443      -9.99755881       0.18532167       0.10608247       0.04826687
Ni      -1.26141544       0.72862443      -5.96513801       0.18532167      -0.10608247      -0.04826687
Ni      -2.50588389       2.88490645      -5.96512141       0.00000000       0.21109377      -0.04706824
Ni      -3.75035234       0.72862443      -5.96513801      -0.18532167      -0.10608247      -0.04826687
Ni      -1.26141544       0.72862443      -2.01621040       0.18532167      -0.10608247       0.04826687
Ni      -2.50588389       2.88490645      -2.01622700       0.00000000       0.21109377       0.04706824
Ni      -3.75035234       0.72862443      -2.01621040      -0.18532167      -0.10608247       0.04826687
Ni      -3.75035234      -0.72862443     -13.94648642      -0.18532167       0.10608247      -0.04826687
Ni      -2.50588389      -2.88490645     -13.94646982       0.00000000      -0.21109377      -0.04706824
Ni      -1.26141544      -0.72862443     -13.94648642       0.18532167       0.10608247      -0.04826687
Ni       0.00000000       0.00077686     -11.97202262       0.00000000      -0.00948321      -0.00000000
Ni       0.00000000      -0.00077686      -3.99067420       0.00000000       0.00948321       0.00000000
Ni       0.00000000       0.00000000      -7.98134841       0.00000000      -0.00000000      -0.00000000
Ni       0.00000000       0.00000000       0.00000000       0.00000000      -0.00000000      -0.00000000
13
Lattice="2.92649022 0.00041237 0.60096332 1.34724568 7.28945609 0.86783957 -0.01722191 0.50915638 7.51679265" Properties=species:S:1:pos:R:3:forces:R:3 source=MPtrj mptrj_traj_id=mp-1402263 mptrj_snapshot_id=mvc-12231-1-4 energy_unit=eV forces_unit=eV/A stress_unit=eV/A^3 energy=-97.78724196 stress="0.012607361615296889 0.0004700720196653116 -0.0010501622468812898 0.0004700720196653116 0.027227834025076298 -0.00160672961181684 -0.0010501622468812898 -0.00160672961181684 0.017691137045706667" pbc="T T T"
Mg       1.16423246       1.12372781       1.84447289      -0.01447743      -0.06476582       0.08434321
V        2.07563095       1.58122415       4.83474282      -0.01924928       0.08428405       0.09406145
V        1.12242843       3.85338665       2.05924878      -0.01304242       0.10234058       0.04616468
V        3.10802469       3.97403962       7.23765485       0.03328431      -0.08999482      -0.14968279