16
Lattice="5.921950947578932 0.0 0.0 -0.0639378387032748 7.766272007758739 0.0 -2.564406121384138 -3.6626535561089253 8.32096578808375" Properties=species:S:1:pos:R:3:forces:R:3 source=Internal internal_id=random-TP-000041 energy_unit=eV forces_unit=eV/A stress_unit=eV/A^3 energy=-76.12195299 stress="0.04326718273131851 0.008019278607114225 -0.006838447795180811 0.008019278607114225 0.052067623798146494 0.016374084098731097 -0.006838447795180811 0.016374084098731097 0.014954864175983363" pbc="T T T"
Gd       3.83598363       1.40736528       4.01735396       0.26325748      -2.57950718      -1.66221517
Th       0.89900955      -1.63396277       5.36525057       1.12061349       0.60231565      -1.21910933
Np       3.37155077      -0.19578081       2.31455984       0.12287747      -3.21857262      -0.01040063
Pa       3.48355077       3.56647686       2.71155312       0.60524375       2.45752445      -1.07833055
Cd       1.21748270       2.27927252       4.64881541       0.16924661       0.71457939       1.67675497
Cd       0.74410602       2.49779293       2.23181616      -1.85474400       0.66135396      -2.79329517
Re       1.06262958      -0.17377036       2.53734538      -0.19247297      -1.89067907       0.78563157
Hg      -2.32673798      -1.44387137       7.53330316      -0.07591416      -0.67941539       0.78651433
B        4.79300029       5.71948246       2.93096867       1.51444294      -0.22774131      -1.95116312
Te       0.04732136       1.16250834       6.93550834      -1.06746685      -1.01550450       0.04395305
Pt       4.22527672      -1.67244868       4.66928499      -2.09470311       0.38035621       2.76018303
Se       2.62557890       0.53844277       6.12894049      -0.06345583      -0.70489482       0.67299877
S        2.04075433       5.36050448       1.18756824       0.03075960       0.46658704       1.57183970
Xe       2.67108423       2.98907623       8.04411061       0.92650153       0.50076922       0.63568320
I        0.29928182      -2.50848737       8.31192090       0.10932802       1.49610626      -1.39356143
F       -0.96943855       2.90853301       4.70854330       0.48648601       3.03672272       1.17451678
16
Lattice="5.612428727814456 0.0 0.0 2.345373912929834 5.16238419385396 0.0 2.209421095827756 -0.1527520745619991 8.701501988939226" Properties=species:S:1:pos:R:3:forces:R:3 source=Internal internal_id=random-TP-000155 energy_unit=eV forces_unit=eV/A stress_unit=eV/A^3 energy=-59.13547803 stress="-0.23878628669476587 -0.003532950216920304 -0.008489466762539841 -0.003532950216920304 -0.28902661019281306 -0.02236711284184531 -0.008489466762539841 -0.02236711284184531 -0.3039081043617236" pbc="T T T"
K        8.57202835       4.87306849       5.87150380      -0.45160093       0.45061621      -0.80218564
K        3.43154078       4.71701151       1.04269229       2.77970860       1.82053319      -0.33333419
Ba       5.75601432       4.53943430       6.98573113      -0.22866372       0.70845105       3.00495659
Eu       3.77804397       0.90192740       3.55377172       0.88901860      -1.61875004      -1.10389087
Dy       2.19496463       2.49099907       0.93286192      -0.41843322      -2.94363143      -2.05525941
Tm       7.78564956       3.39733698       3.34140287      -0.15447036       1.74292989       1.57168627
Ta       5.06417414       3.20596951       3.39627454       1.16229280       2.08734523       0.04196398
Cd       6.81155021       2.28282997       5.60606447      -2.43242357      -0.37681691       0.09700435
Fe       4.85125333       1.70766000       7.10307088      -1.05128672       1.75191118      -0.29978202
Re       6.45024374       4.67090168       1.28350635      -4.03425821      -2.50413782       1.35666059
Ge       3.52254083       2.53163478       5.55938962       2.91670116      -1.80762938       0.01468428
Br       6.41679515       0.85404481       8.16406242       2.00378259      -0.07615785       0.87167957
N        5.61980459       4.39728176       4.80993795      -0.07289796      -0.62728557      -3.29813413
Cl       6.70947792       0.67499135       3.43336034      -0.58447807       0.09008546      -1.00279079
Ne       5.20232144       1.85719063       1.43907181       0.99795324       0.54206512       0.80696813
Ni       8.33934056       2.24805460       7.66320397      -1.32094423       0.76047168       1.12977328
16
Lattice="3.61045129531988 0.0 0.0 0.6937172931479997 9.230734568322472 0.0 1.7418653620430065 1.4197966160200202 10.704925880871938" Properties=species:S:1:pos:R:3:forces:R:3 source=Internal internal_id=random-TP-000598 energy_unit=eV forces_unit=eV/A stress_unit=eV/A^3 energy=-61.26080673 stress="-0.09853545269008585 0.0344448246114365 0.008861224571427725 0.0344448246114365 -0.10113328067357104 -0.03277872576481426 0.008861224571427725 -0.03277872576481426 -0.053273506891756535" pbc="T T T"
He       3.49539051       5.58724047       2.65345139      -0.38469232       1.63209352       1.61591163
K        5.21884269       7.03287595       9.78205422      -0.06609450      -0.48701918       0.55938588
Rb       1.66993930       5.01228723       2.12132023       0.38895572      -1.23883295      -0.79211019
Na       2.81549569       2.16671204       1.26730265      -0.46743279      -0.30624347      -1.52870001
Sr       3.41069403       9.34285577       8.32146343       2.76044976       1.56377441       2.55251656
Li       0.81278777       1.59465009       2.58731636       0.42826319      -0.90107739       1.10947087
Yb       2.56842642       3.93315307       8.51937610      -0.56755988       0.05831837       1.77511516
Eu       3.59436544       6.14412804       5.86619234      -1.73092035       0.49324164      -1.20106249
Er       1.89443306       1.85026359       5.55756932      -3.22495530       3.33182073       1.94241450
Mg       1.73638975       8.26755278       3.79869647       2.47377828      -2.38619286      -2.05830178
Re       4.11514138       3.79255525       6.46148256      -0.48081334      -0.43855457      -1.71886422
Sn       1.40317450       8.53234556       0.79799870       0.07830760      -0.01175027       0.31688459
Pd       4.04961171       9.70813938       4.76555467       1.62589283      -3.01181950      -1.75732033
Ru       5.02832630       7.66420945       6.86666400       0.16747210      -2.58779157      -0.69576606
N        2.23173062       4.02897690       5.38671870       0.55699593       1.10161504       1.24114978
O        2.00517040       9.41438430       6.84682777      -1.55764691       3.18841804      -1.36072390
16
Lattice="4.957469139869053 0.0 0.0 0.5505662084103445 6.970659478238889 0.0 1.1616904023608554 1.3973742104314402 7.806271606791478" Properties=species:S:1:pos:R:3:forces:R:3 source=Internal internal_id=random-TP-000144 energy_unit=eV forces_unit=eV/A stress_unit=eV/A^3 energy=-107.70285138 stress="-0.1925744536616322 -0.030087213403432535 0.0061039728036455946 -0.030087213403432535 -0.15566679447954157 0.007706313323830022 0.0061039728036455946 0.007706313323830022 -0.10507042760737807" pbc="T T T"
Yb       1.68295142       1.87963841       2.80291988       1.07715651       0.38659189      -0.42348715
Ho       2.35752683       2.94898364       7.79086983       0.10599315      -0.39872972      -0.63584937
Hf       3.39645396       6.35127344       2.15556139       0.06223073      -0.44848299       1.49056069
Th       5.27588297       8.13439669       7.05100702       0.88502278       0.83886033      -2.21480629
Sc       1.84657261       5.95489500       4.80996695      -0.71264443      -0.35297647       1.18088882
Pa       3.78936847       5.76374918       7.68849058      -1.57341053      -0.95757781      -1.23285333
Pa       4.47577592       3.60186794       2.12450805      -0.26217401       1.17330573       1.37939227
Ti       3.17310980       3.47301730       5.17370019       0.32686809       0.84711311      -0.99677312
Ti       0.87651529       6.34402863       2.00905328       0.03997876      -0.49112017      -0.18252410
Al       4.35557124       1.31257851       3.98887989      -0.23987046      -0.22870698      -0.12529981
Cr       5.19885110       4.22779523       0.04275495       0.44974729      -0.22193796      -0.67499848
Re       4.34856228       5.95941167       4.77565839      -0.36790801      -1.01032513       0.69209319
Tc       5.51052226       3.43323306       5.19074128      -0.25398383       0.07016880       0.46994775
Ni       3.99784865       1.39038253       1.42184992      -0.50752603       0.63119209      -0.27404210
As       2.22464939       1.18163998       5.31406475       0.31663658       0.97027985       1.99782635
Cl       1.91888774       4.42298341       2.96956036       0.65388338      -0.80765457      -0.45007533
16
Lattice="4.451311934051129 0.0 0.0 1.4644810871120422 6.021398794341987 0.0 0.1149437374118927 0.8183557159679528 6.425918950278113" Properties=species:S:1:pos:R:3:forces:R:3 source=Internal internal_id=random-TP-000003 energy_unit=eV forces_unit=eV/A stress_unit=eV/A^3 energy=11.8030721 stress="-2.014332664278008 -0.04207946285992891 0.005972704910162674 -0.04207946285992891 -1.607871456789641 0.029560307474934794 0.005972704910162674 0.029560307474934794 -1.3995571946683096" pbc="T T T"
Ar       1.45261247       0.80693813       3.00127043       0.33824871      -3.14719142      -1.47203389
Tb       4.68606014       6.42267735       5.43131522      -5.15015511       0.66799819       2.30875023
Pr       4.10977126       1.09923028       0.90662006       0.54286262       0.96893734       1.35084924
Gd       3.49862978       4.11887763       6.17339319       2.53530804      -1.32981703       3.89059897
Y        2.23419390       4.82666212       1.49403901      -2.21450872       1.59379884       2.38889161
Pa       2.38926176       2.60643527       4.05192745       2.57305991      -9.90568537       3.38730376
Mn       2.92109910       2.72736785       1.80378115      -0.85765577       1.80356590       3.40870081
Cu       3.83492154       0.77853293       3.15141844      -0.84008898       1.00409104       0.43554262
Ag       1.45869011       4.77701168       4.01774799      -3.32206121       2.04709234      -5.70977340
Os       1.31357918       4.15551699       6.27537252      -2.15533328      -2.39322574       1.96049848
Pd       5.09491757       2.88069656       2.33683041      -1.43857481       3.11060203       0.50337377
Pd       1.85492067       1.15309003       0.74452625      -0.25409383      -1.31635986      -5.36910312
Rh       2.44571431       6.30958800       5.37896326       4.78804430       0.78823296       3.80888532
Xe       3.69360920       4.61428455       3.82721307       4.44837929       3.24157334      -4.50639048
Br       4.65928329       2.26681223       5.03894218      -0.40610868       5.46190196      -5.48185051
Kr       4.41138007       5.11595389       1.46013586       1.41267752      -2.59551453      -0.90424341
16
Lattice="5.348949831740899 0.0 0.0 0.9566100798303123 6.098600885064708 0.0 0.7367418201307765 0.4223308332834186 7.966133025761905" Properties=species:S:1:pos:R:3:forces:R:3 source=Internal internal_id=random-TP-000233 energy_unit=eV forces_unit=eV/A stress_unit=eV/A^3 energy=-39.24093478 stress="-0.43697577611663024 -0.030787980719235327 -0.00020280753431400962 -0.030787980719235327 -0.46102567340620637 0.005983711280977893 -0.00020280753431400962 0.005983711280977893 -0.4584885375453857" pbc="T T T"
Cs       5.89406863       5.82719824       1.07505355       1.77169914      -0.61759594       0.31342460
He       5.42452010       3.35263231       6.10298993       0.04550027      -1.47691735      -0.56211069
Tb       5.34919019       3.42611675       1.71875693      -1.26385365      -2.91161361      -0.65408980
Yb       5.29114064       2.07595839       7.63606427       1.26463528       4.43866778      -0.16559973
Nd       2.66682144       3.60048425       1.85316153       1.75401597       2.82809952       2.54028939
Tm       3.73074897       3.14658866       5.21361898      -0.38702645       1.41090052       0.72006581
Pu       2.29369341       2.13850844       0.05194715      -1.11215821       1.27505761      -3.68394400
Np       2.23153898       0.61921227       1.55830307      -0.20346810      -3.16809596       1.70050638
In       1.34166208       2.56362693       4.10855700      -1.99204747      -0.41634664      -0.72896137
Ga       4.41842272       0.59952666       5.77061897       0.25463801      -0.18390203      -0.70451414
Sn       1.71224433       4.49279180       6.54348523      -0.46322344       0.41795143       0.80261085
Sn       4.25398819       1.51244305       3.29966789       0.02458504      -1.01034660      -0.37395853
Sb       1.83548519       1.04891082       6.20791187       0.21670887      -0.69101417      -0.94957915
Te       4.37605573       4.99521937       7.34757873      -0.52762801       0.28065518       1.71918543
Pd       4.80520922       5.15265435       3.88563274       0.37418775      -0.74148894       0.05264562
Xe       2.17862561       5.51781438       3.84318918       0.24343500       0.56598919      -0.02597068
16
Lattice="5.893273066998593 0.0 0.0 1.8790456416179229 6.3315110323333315 0.0 0.619085262063401 0.5620980626009132 9.49002420773552" Properties=species:S:1:pos:R:3:forces:R:3 source=Internal internal_id=random-TP-000505 energy_unit=eV forces_unit=eV/A stress_unit=eV/A^3 energy=-105.72102979 stress="-0.013915535291525833 -0.022047070610955705 -0.008750144527137018 -0.022047070610955705 -0.03610033483144932 -0.010287541920172302 -0.008750144527137018 -0.010287541920172302 -0.017695410500899504" pbc="T T T"
Ac       2.13406817       1.11089268       8.12140139      -0.28128705       0.94443621       2.00508346
Dy       3.29904267       2.26970795       2.61426442      -0.39661041      -0.15042071      -0.58629035
Lu       4.20045447       5.35671832       2.50020382       0.81456539       1.12919292       1.04293414
Th       6.50435115       3.65421943       5.12205076       0.93670119      -0.41183689       0.64728425
Th       3.20432547       4.34508297       8.01510362       0.01834445      -1.10172651      -1.17802356
Pa       7.59764979       6.44551310       4.84812122      -0.59112963       1.00950291      -0.12220171
Be       5.39692697       0.36165633       1.58816504       0.92646141       1.80491518       0.73534303
Ni       4.13177424       2.88105049       5.17138940      -0.14210866       0.65417640      -0.11959878
Mo       6.20509487       4.32583711       7.93197101      -0.14581464       0.41596948      -0.26487155
Mo       6.21501831       5.40007491       0.02958989      -2.01966090       0.01671533      -0.25877080
As       5.11242154       2.33436328       9.27151640      -0.01455680      -0.98687183       0.24758239
P        6.81357286       4.94595192       2.66808235       0.42571592      -0.81427277      -1.00955774
Os       3.91350893       5.39024202       5.19332085       0.32456153       0.03368144       1.27956021
Pd       6.17283371       2.41290822       2.57343834       0.17938605      -0.26985953      -0.32676099
Ru       2.54532597       4.85629382       0.87632782       0.61401435      -1.39307921      -0.72187493
Cl       2.64189172       1.46250062       5.51719639      -0.64858221      -0.88052243      -1.36983706
16
Lattice="5.413703433354842 0.0 0.0 1.2999490214159872 6.352013777759822 0.0 1.5927758909649923 2.424118717989705 7.551087282306675" Properties=species:S:1:pos:R:3:forces:R:3 source=Internal internal_id=random-TP-000173 energy_unit=eV forces_unit=eV/A stress_unit=eV/A^3 energy=-103.23395307 stress="-0.2348418263849878 0.027104730849409238 -0.004729222422567009 0.027104730849409238 -0.23939636293561872 0.02659470838410077 -0.004729222422567009 0.02659470838410077 -0.20645862676789847" pbc="T T T"
Yb       0.17123091       0.31106678       0.24072866       1.46614527      -0.18084423       1.09413935
Pm       5.88360613       4.58738178       6.35346218       1.22665244      -0.00650402      -0.40159947
Pr       4.53400416       6.16217796       3.65563992      -2.38932023       1.24001289       2.79361021
Er       7.11803602       6.91733632       7.32443384       2.41223475      -1.05566215       2.10831712
Pu       3.53602093       4.75157174       1.47823860      -0.74432877      -2.90631290       1.82224049
Mg       5.62698233       1.23488286       2.62150342       0.93653337      -1.66415745       2.90141743
U        3.46576751       3.09015235       3.24014135       0.16190192       0.96665658      -2.84782928
Re       4.46454450       6.81214538       6.77290243      -2.04287922       0.72399016      -1.45328703
Re       2.15970592       2.39434667       5.15317155      -0.05703788      -0.61955790       0.12227367
Ni       2.25933215       6.53820517       4.63225979      -0.64063333      -1.75905880       0.99713205
Sb       4.91854607       2.06740604       5.41098078      -1.56322341       0.41037280      -1.66391021
As       3.03008111       0.84427525       1.15539941       0.27115037       0.90496170      -1.63226326
Ir       1.49019148       2.63719845       1.17743348       1.62568412       2.40208872      -0.86796652
Os       3.30632704       4.43052594       6.21422769      -1.06995781       0.83654089      -1.72319148
Au       6.43564596       4.56161229       3.19118009       2.20916819      -1.32467351      -0.77681959
C        4.97876826       2.64508971       1.38323838      -1.80208977       2.03214722      -0.47226348
16
Lattice="5.409267119199328 0.0 0.0 -2.56306848710758 5.158513081025293 0.0 -2.1508105358450287 -2.1520044454309932 9.058841807346305" Properties=species:S:1:pos:R:3:forces:R:3 source=Internal internal_id=random-TP-000624 energy_unit=eV forces_unit=eV/A stress_unit=eV/A^3 energy=-34.0866017 stress="-0.5787298305769911 0.029533934209059205 -0.0002052820555050756 0.029533934209059205 -0.5384660645898248 0.03341127570771254 -0.0002052820555050756 0.03341127570771254 -0.5311751910379643" pbc="T T T"
K        1.10300309       2.90927030       4.94479598      -0.05879477      -2.78050211       1.50587284
Sr      -0.16310217       0.51408878       5.22257631       0.84258903       2.54376849       0.64567058
Tb      -0.03632524       4.99984675       0.45979057      -0.52315169       1.40805889      -1.07031951
Tb       3.72129667      -0.74485119       3.14825553       0.86452271      -0.54716279      -0.80383831
Ce      -2.67237536       4.96864822       0.58540953       2.33360055      -1.95199751      -0.93841377
Pm       2.49466946       1.68461469       3.12270960       0.28784561       1.57999176       1.14625995
Dy      -0.22474201       1.91288620       3.01288925       1.13456099       1.17628788       1.89469986
Dy       1.05185500       1.54338512       7.58308401       1.76380023      -2.09495537      -1.96776217
Y       -1.22624975       2.35278868       0.56876844      -0.66619755       2.83627314      -4.37617112
Th      -1.52375275       4.43345190       3.01092349      -0.13172679      -2.02224706       0.84973668
Th       1.42986851       2.49784076       0.59156955       1.03286512       0.06549508       3.25330130
Mn      -1.37203597       1.57698864       7.63172093      -1.72578339      -0.63624752      -1.57538268
In      -1.46049374      -0.98434397       7.37115241      -0.36966629       0.56836998       0.67254495
Hg       2.68766656       0.24857860       5.64182856      -2.72019445       2.55332787      -0.94540394
I       -1.69882246       3.39987439       6.17418046       1.54198105      -2.24804304      -0.64506468
O        4.03917374       0.77952452       1.76859392      -3.60625035      -0.45041769       2.35427001
16
Lattice="6.291275185751852 0.0 0.0 2.233986720442808 7.110108038052178 0.0 2.7619049961128757 1.1139888944357088 8.229640420900274" Properties=species:S:1:pos:R:3:forces:R:3 source=Internal internal_id=random-TP-000072 energy_unit=eV forces_unit=eV/A stress_unit=eV/A^3 energy=-75.04891398 stress="-0.10519709842341997 -0.010196569309470228 0.020601751780349037 -0.010196569309470228 -0.1466342361322765 -0.0018078244011285978 0.020601751780349037 -0.0018078244011285978 -0.11194337780964829" pbc="T T T"
Rb       4.16909680       0.97112221       3.41149045      -0.01280440      -0.53641745       0.95777146
Yb       2.19578631       1.48430003       0.06414182       1.51454486       1.40890057       0.73343682
Ce       3.15404352       3.15013160       6.26930716      -1.41419810      -1.09854530      -1.25814645
Sm       7.52265987       4.68100469       3.01401528       1.06760302       0.29517505      -0.06384690
Tm       4.77865658       6.01698997       5.66051950       0.09133490       0.87945366       1.11303197
Ta       2.84135817       4.66946814       0.45616897       1.46875710      -3.33935901      -0.42977690
Ti       5.03563937       2.53821529       0.72380511      -0.39867374      -0.02461671      -0.22554073
Cd       3.82002566       6.62984533       1.89265271       0.28956415       0.94711934       3.30710091
In       7.46763553       6.84639052       0.43730664      -1.50473514       0.16517822      -0.45329693
Re       6.84299540       3.73868642       0.15148300      -0.03438775       2.58346229      -0.17113773
B        5.30153691       4.78694875       1.52597284       0.49429948       0.53383737      -2.46511082
Pd       4.64244304       3.67563691       2.94999690      -0.91551056       0.01021572       1.68224191
Au       6.32131501       3.72901362       5.41700445      -2.20072820       2.92704216       4.41696800
Au       7.16841140       2.06530578       3.99643683       2.50420709      -4.72458143      -2.82309117
Cl       6.62788047       7.54646548       7.37291839       0.31103748      -0.53918734      -3.56838275
F        3.22882299       4.94314098       4.88668641      -1.26031018       0.51232287      -0.75222071
16
Lattice="5.524665692854275 0.0 0.0 0.5476076311136896 6.432267766122929 0.0 2.5833540528149848 1.0530040011091781 9.136880335040319" Properties=species:S:1:pos:R:3:forces:R:3 source=Internal internal_id=random-TP-000653 energy_unit=eV forces_unit=eV/A stress_unit=eV/A^3 energy=-68.33484503 stress="-0.12257403823052967 -0.011761997856759639 0.007720900691849618 -0.011761997856759639 -0.09474914265956565 0.004553553431804015 0.007720900691849618 0.004553553431804015 -0.08539640210308579" pbc="T T T"
K        5.56921468       5.75635684       3.65643332       0.80595816       1.21249300       0.21165781
Ac       5.34880116       2.50792274       3.42572709       0.13990859      -0.53218527      -0.99492444
Ce       4.41872274       6.11657530       6.75039115       0.53509748       1.82590564       0.80239041
Pr       0.97777373       2.61873897       0.50372535       0.03872813       0.84876794       0.01329807
Eu       3.77845894       3.90331708       6.23575636      -3.82560125      -2.91569974      -0.22071464
Tm       2.93111468       4.78830609       3.30240662      -0.95979840      -0.75872190       0.30305747
Th       1.31314404       5.86094990       0.67781033       0.26503950      -0.17787735       0.49278306
U        6.15381891       3.66226670       5.96159513       3.18749771      -0.30264408       0.16218296
Ta       3.72961053       2.54176442       0.43150745       0.36280819       0.46604066      -0.77253176
Be       2.93723861       0.91338190       2.05831071      -0.00974790      -0.32564039       0.33621484
Tl       2.59094841       1.46158828       4.64475139      -0.46651088      -0.15237217      -0.31216903
Ga       7.39349584       5.49662180       7.86453320      -0.77650314       0.26751355       0.13263743
Cu       4.21891755       5.10140503       1.07812446      -0.55719152      -0.28557786      -0.29936862
Cu       7.61525392       1.89739104       7.73160987      -0.55432597      -0.19296524      -0.44106042
Br       4.94097207       1.85930419       7.80532622       1.40645944       1.15897335       0.75082761
He       5.51514683       0.66364344       5.52522687       0.40818186      -0.13601014      -0.16428074
16
Lattice="5.8846027549861 0.0 0.0 -1.9659798281561875 6.446989154426426 0.0 -1.7859104486540363 -1.5586131031325097 9.713267808993994" Properties=species:S:1:pos:R:3:forces:R:3 source=Internal internal_id=random-TP-000298 energy_unit=eV forces_unit=eV/A stress_unit=eV/A^3 energy=-70.49131915 stress="-0.04029955806480334 0.020725355244180083 0.0030866967323057324 0.020725355244180083 -0.032433201911318266 -0.00160739808992724 0.0030866967323057324 -0.00160739808992724 -0.011405011802553948" pbc="T T T"
K       -2.54368527       5.31473349       4.33441949       0.19898589       0.39999230       0.00668673
Ac      -0.17509903       1.10709048       0.91142506      -2.40481197      -0.17993160      -0.39647283
Yb       0.91879695       4.20983936       5.93587509      -0.84547298       1.51921053      -1.12238666
H        2.22995867       3.45307968       3.21592699      -0.39350849      -0.23483510       0.23182802
Ne       0.86767595      -0.59863399       6.39562349       0.17003457       0.43154050      -0.01521639
Pr       1.78330799       4.33143294       0.93884561       0.32204010      -0.09951299       0.31593681
Th       2.36102861       1.45275523       4.56813043       0.77696759       2.15849185      -0.84777876
Zr      -1.98709216       4.73576070       8.63419175       0.17350743      -0.98077731       0.33973771
Ti      -0.21505230       5.85517530       2.34657009       1.77555055       0.74805496      -0.34401491
Zn      -1.48180590       1.58948188       7.86109334       0.57021111      -1.12331392       1.92169033
Zn      -0.64105250       3.08254989       3.26535780       0.36519570      -0.60599360       2.31483167
Re       2.52938073       1.55337099       0.64576718       1.04276530      -1.07765935       0.47279897
Mo      -1.21704362       3.87322345       1.05003339      -0.65958933       0.62506795      -2.25491401
Rh      -1.57778931       2.61184563       5.78688328       0.25706252       0.91346359      -1.90938126
I        1.63964392       2.24591517       7.66325350       0.00687474      -0.95760814       1.43959099
O        3.08410685      -0.38926821       3.96246932      -1.35581275      -1.53618969      -0.15293640
16
Lattice="4.507603775462745 0.0 0.0 0.0674143297583445 6.713353677091744 0.0 2.0615799507045223 0.772525631721926 7.598564101914636" Properties=species:S:1:pos:R:3:forces:R:3 source=Internal internal_id=random-TP-000669 energy_unit=eV forces_unit=eV/A stress_unit=eV/A^3 energy=-33.33394972 stress="-0.6539762933544861 -0.007491172448894594 -0.005849342793006508 -0.007491172448894594 -0.5619930724431652 0.0016560227040856345 -0.005849342793006508 0.0016560227040856345 -0.5038500400891632" pbc="T T T"
K        1.81007905       4.75251109       6.27131531      -0.71673575       0.34473329      -3.12204370
Sr       4.78661690       1.97265721       5.10470017       2.91593542       0.31662034      -0.16514163
Ac       2.52236841       2.10745450       7.48821015      -1.08806838       1.86927015       0.60596421
Ar       4.10335439       3.87525058       6.29376907       0.02797207      -0.22735393      -0.42174819
La       2.95542056       4.52236662       3.62620956       0.29401609       0.37389569       1.68418537
Sm       2.32338936       6.96805764       3.90938525      -3.59356017      -1.19015668       1.43360935
Np       0.50536648       4.20847041       1.07880614      -0.21056404       3.28054868       1.04901720
Mn       5.23917972       4.41798048       3.45716430      -0.42935220      -0.55206219      -0.16088215
Al       1.33930266       2.30749391       2.54192486      -0.34340546      -0.42943077      -0.40466664
Cd       4.52430881       6.58125026       2.48277763       5.89582062       0.79738242       2.52107759
In       2.74716767       6.58632107       1.03985589      -5.15951857      -0.47083981      -1.58740695
Ga       3.55111137       2.14002179       2.70429097       2.15392082       0.20276799      -2.71807157
Ni       2.54801860       2.45431198       4.79505868      -1.53231823       1.17552634      -0.54169644
Ir       2.75139778       3.81908612       0.97371800       0.33375032      -2.87519205       0.83705382
C        6.50006445       6.68113028       7.55340584       0.07127518      -0.48327175       0.35152635
Xe       3.97567935       6.48923611       5.99167296       1.38083228      -2.13243772       0.63922337
16
Lattice="6.6675462321842955 0.0 0.0 0.5978478176599191 7.604993626453953 0.0 3.0118461843391287 3.2144063987695843 6.891793123849989" Properties=species:S:1:pos:R:3:forces:R:3 source=Internal internal_id=random-TP-000375 energy_unit=eV forces_unit=eV/A stress_unit=eV/A^3 energy=-94.58238796 stress="-0.004795364449996599 0.011727319326765701 0.012737500919099668 0.011727319326765701 -0.02780173701932975 -0.0027275071257861663 0.012737500919099668 -0.0027275071257861663 0.01020503255866758" pbc="T T T"
Pr       4.59228030       2.41168385       4.57385567       0.78509753       0.54965801      -1.12212546
Sm       1.78883726       1.29413540       1.44051571      -0.45000504       0.39090563       0.03569446
Er       8.51390206       4.32214407       5.25708736      -2.20333848      -0.80039485       0.49593948
Lu       4.02357138       5.48885302       0.33053040      -0.47935777      -0.09565921       0.32640879
Zr       6.50818723       4.53126957       2.45557346       1.28747936       1.36707265       0.58537461
Ta       3.15397592       6.12555452       3.38988006       0.02819745       1.38868215      -1.76980132
Nb       1.04794866       6.02598360       0.35243941      -0.51092129      -1.37421555       1.36091247
Tl       5.59695064       7.68262544       1.80842719       0.21243336      -0.52902243       0.56904897
Cr       4.72339475       5.63899345       5.48213197       6.89672405      -4.07722214      -1.34943126
Cr       3.07144006       6.82462913       5.99037415      -4.41545524       4.43987621       2.50492823